 Entering Gaussian System, Link 0=/nfs/gaussian/g03/g03
 Initial command:
 /nfs/gaussian/g03/l1.exe /home/kenno/scratch/Gau-4448.inp -scrdir=/home/kenno/scratch/
 Entering Link 1 = /nfs/gaussian/g03/l1.exe PID=      4450.
  
 Copyright (c) 1988,1990,1992,1993,1995,1998,2003,2004, Gaussian, Inc.
                  All Rights Reserved.
  
 This is the Gaussian(R) 03 program.  It is based on the
 the Gaussian(R) 98 system (copyright 1998, Gaussian, Inc.),
 the Gaussian(R) 94 system (copyright 1995, Gaussian, Inc.),
 the Gaussian 92(TM) system (copyright 1992, Gaussian, Inc.),
 the Gaussian 90(TM) system (copyright 1990, Gaussian, Inc.),
 the Gaussian 88(TM) system (copyright 1988, Gaussian, Inc.),
 the Gaussian 86(TM) system (copyright 1986, Carnegie Mellon
 University), and the Gaussian 82(TM) system (copyright 1983,
 Carnegie Mellon University). Gaussian is a federally registered
 trademark of Gaussian, Inc.
  
 This software contains proprietary and confidential information,
 including trade secrets, belonging to Gaussian, Inc.
  
 This software is provided under written license and may be
 used, copied, transmitted, or stored only in accord with that
 written license.
  
 The following legend is applicable only to US Government
 contracts under FAR:
  
                    RESTRICTED RIGHTS LEGEND
  
 Use, reproduction and disclosure by the US Government is
 subject to restrictions as set forth in subparagraphs (a)
 and (c) of the Commercial Computer Software - Restricted
 Rights clause in FAR 52.227-19.
  
 Gaussian, Inc.
 340 Quinnipiac St., Bldg. 40, Wallingford CT 06492
  
  
 ---------------------------------------------------------------
 Warning -- This program may not be used in any manner that
 competes with the business of Gaussian, Inc. or will provide
 assistance to any competitor of Gaussian, Inc.  The licensee
 of this program is prohibited from giving any competitor of
 Gaussian, Inc. access to this program.  By using this program,
 the user acknowledges that Gaussian, Inc. is engaged in the
 business of creating and licensing software in the field of
 computational chemistry and represents and warrants to the
 licensee that it is not a competitor of Gaussian, Inc. and that
 it will not use this program in any manner prohibited above.
 ---------------------------------------------------------------
  

 Cite this work as:
 Gaussian 03, Revision D.01,
 M. J. Frisch, G. W. Trucks, H. B. Schlegel, G. E. Scuseria, 
 M. A. Robb, J. R. Cheeseman, J. A. Montgomery, Jr., T. Vreven, 
 K. N. Kudin, J. C. Burant, J. M. Millam, S. S. Iyengar, J. Tomasi, 
 V. Barone, B. Mennucci, M. Cossi, G. Scalmani, N. Rega, 
 G. A. Petersson, H. Nakatsuji, M. Hada, M. Ehara, K. Toyota, 
 R. Fukuda, J. Hasegawa, M. Ishida, T. Nakajima, Y. Honda, O. Kitao, 
 H. Nakai, M. Klene, X. Li, J. E. Knox, H. P. Hratchian, J. B. Cross, 
 V. Bakken, C. Adamo, J. Jaramillo, R. Gomperts, R. E. Stratmann, 
 O. Yazyev, A. J. Austin, R. Cammi, C. Pomelli, J. W. Ochterski, 
 P. Y. Ayala, K. Morokuma, G. A. Voth, P. Salvador, J. J. Dannenberg, 
 V. G. Zakrzewski, S. Dapprich, A. D. Daniels, M. C. Strain, 
 O. Farkas, D. K. Malick, A. D. Rabuck, K. Raghavachari, 
 J. B. Foresman, J. V. Ortiz, Q. Cui, A. G. Baboul, S. Clifford, 
 J. Cioslowski, B. B. Stefanov, G. Liu, A. Liashenko, P. Piskorz, 
 I. Komaromi, R. L. Martin, D. J. Fox, T. Keith, M. A. Al-Laham, 
 C. Y. Peng, A. Nanayakkara, M. Challacombe, P. M. W. Gill, 
 B. Johnson, W. Chen, M. W. Wong, C. Gonzalez, and J. A. Pople, 
 Gaussian, Inc., Wallingford CT, 2004.
 
 ******************************************
 Gaussian 03:  IA32L-G03RevD.01 13-Oct-2005
                 5-May-2012 
 ******************************************
 %CHK=sulfaz_scan
 %Mem=2000MB
 %NProcShared=2
 Will use up to    2 processors via shared memory.
 -------------------------------------
 #MP2/6-31G(d) NoSymm Opt=ModRedundant
 -------------------------------------
 1/18=120,38=1/1,3;
 2/9=110,15=1,17=6,18=5,40=1/2;
 3/5=1,6=6,7=1,11=9,16=1,25=1,30=1/1,2,3;
 4//1;
 5/5=2,38=5/2;
 8/6=4,10=2/1;
 9/15=2,16=-3/6;
 10/5=1,31=1/2;
 6/7=2,8=2,9=2,10=2/1;
 7/12=2,30=1/1,2,3,16;
 1/18=20/3(3);
 2/9=110,15=1/2;
 6/7=2,8=2,9=2,10=2/1;
 99//99;
 2/9=110,15=1/2;
 3/5=1,6=6,7=1,11=9,16=1,25=1,30=1/1,2,3;
 4/5=5,16=3/1;
 5/5=2,38=5/2;
 8/6=4,10=2/1;
 9/15=2,16=-3/6;
 10/5=1,31=1/2;
 7/12=2,30=1/1,2,3,16;
 1/18=20/3(-8);
 2/9=110,15=1/2;
 6/7=2,8=2,9=2,10=2/1;
 99//99;
 ----------------------------------------------------------------------
 SULFAZ, "sulfonamidazole" exocyclic scan (model compound for ACAZAM, a
 cetazolami
 ----------------------------------------------------------------------
 Symbolic Z-matrix:
 Charge =  0 Multiplicity = 1
 C                     0.8961    2.8103    0.0008 
 H                     1.06025   3.86763   0.00135 
 N                     1.9026    1.8702    0. 
 N                     1.3772    0.538     0. 
 C                     0.        0.538     0. 
 S                    -0.6145    2.0931    0.0008 
 S                    -1.0382   -0.9079   -0.0008 
 O                    -0.90145  -1.59601  -1.20768 
 O                    -0.90157  -1.59737   1.20524 
 N                    -2.49017  -0.00477  -0.00037 
 H                    -3.01465  -0.21638  -0.82511 
 H                    -3.02972  -0.24137   0.80764 
 
 The following ModRedundant input section has been read:
 D    6    5    7   10 0.0000 S  12 15.000                                     
 Iteration  1 RMS(Cart)=  0.00000000 RMS(Int)=  0.00000000
 Iteration  1 RMS(Cart)=  0.00000000 RMS(Int)=  0.00000000

 GradGradGradGradGradGradGradGradGradGradGradGradGradGradGradGradGradGrad
 Berny optimization.
 Initialization pass.
                           ----------------------------
                           !    Initial Parameters    !
                           ! (Angstroms and Degrees)  !
 --------------------------                            --------------------------
 ! Name  Definition              Value          Derivative Info.                !
 --------------------------------------------------------------------------------
 ! R1    R(1,2)                  1.07           estimate D2E/DX2                !
 ! R2    R(1,3)                  1.3773         estimate D2E/DX2                !
 ! R3    R(1,6)                  1.6722         estimate D2E/DX2                !
 ! R4    R(3,4)                  1.4321         estimate D2E/DX2                !
 ! R5    R(4,5)                  1.3772         estimate D2E/DX2                !
 ! R6    R(5,6)                  1.6721         estimate D2E/DX2                !
 ! R7    R(5,7)                  1.78           estimate D2E/DX2                !
 ! R8    R(7,8)                  1.396          estimate D2E/DX2                !
 ! R9    R(7,9)                  1.3959         estimate D2E/DX2                !
 ! R10   R(7,10)                 1.7099         estimate D2E/DX2                !
 ! R11   R(10,11)                1.0            estimate D2E/DX2                !
 ! R12   R(10,12)                1.0            estimate D2E/DX2                !
 ! A1    A(2,1,3)              124.2219         estimate D2E/DX2                !
 ! A2    A(2,1,6)              124.2219         estimate D2E/DX2                !
 ! A3    A(3,1,6)              111.5563         estimate D2E/DX2                !
 ! A4    A(1,3,4)              111.5228         estimate D2E/DX2                !
 ! A5    A(3,4,5)              111.5235         estimate D2E/DX2                !
 ! A6    A(4,5,6)              111.5615         estimate D2E/DX2                !
 ! A7    A(4,5,7)              125.6795         estimate D2E/DX2                !
 ! A8    A(6,5,7)              122.759          estimate D2E/DX2                !
 ! A9    A(1,6,5)               93.8358         estimate D2E/DX2                !
 ! A10   A(5,7,8)              110.0994         estimate D2E/DX2                !
 ! A11   A(5,7,9)              110.1045         estimate D2E/DX2                !
 ! A12   A(5,7,10)              93.7976         estimate D2E/DX2                !
 ! A13   A(8,7,9)              119.5968         estimate D2E/DX2                !
 ! A14   A(8,7,10)             110.1051         estimate D2E/DX2                !
 ! A15   A(9,7,10)             110.1068         estimate D2E/DX2                !
 ! A16   A(7,10,11)            109.4738         estimate D2E/DX2                !
 ! A17   A(7,10,12)            109.4748         estimate D2E/DX2                !
 ! A18   A(11,10,12)           109.4718         estimate D2E/DX2                !
 ! D1    D(2,1,3,4)            179.9737         estimate D2E/DX2                !
 ! D2    D(6,1,3,4)             -0.0263         estimate D2E/DX2                !
 ! D3    D(2,1,6,5)           -179.9917         estimate D2E/DX2                !
 ! D4    D(3,1,6,5)              0.0083         estimate D2E/DX2                !
 ! D5    D(1,3,4,5)              0.0358         estimate D2E/DX2                !
 ! D6    D(3,4,5,6)             -0.0295         estimate D2E/DX2                !
 ! D7    D(3,4,5,7)            179.9683         estimate D2E/DX2                !
 ! D8    D(4,5,6,1)              0.0127         estimate D2E/DX2                !
 ! D9    D(7,5,6,1)           -179.9852         estimate D2E/DX2                !
 ! D10   D(4,5,7,8)            -66.9726         estimate D2E/DX2                !
 ! D11   D(4,5,7,9)             66.9745         estimate D2E/DX2                !
 ! D12   D(4,5,7,10)          -179.9975         estimate D2E/DX2                !
 ! D13   D(6,5,7,8)            113.0249         estimate D2E/DX2                !
 ! D14   D(6,5,7,9)           -113.0279         estimate D2E/DX2                !
 ! D15   D(6,5,7,10)             0.0            Scan                            !
 ! D16   D(5,7,10,11)          119.0            estimate D2E/DX2                !
 ! D17   D(5,7,10,12)         -120.9955         estimate D2E/DX2                !
 ! D18   D(8,7,10,11)            5.98           estimate D2E/DX2                !
 ! D19   D(8,7,10,12)          125.9845         estimate D2E/DX2                !
 ! D20   D(9,7,10,11)         -127.974          estimate D2E/DX2                !
 ! D21   D(9,7,10,12)           -7.9695         estimate D2E/DX2                !
 --------------------------------------------------------------------------------
 Trust Radius=3.00D-01 FncErr=1.00D-07 GrdErr=1.00D-07
 Number of optimizations in scan=  13
 Number of steps in this run=  61 maximum allowed number of steps= 100.
 GradGradGradGradGradGradGradGradGradGradGradGradGradGradGradGradGradGrad

                          Input orientation:                          
 ---------------------------------------------------------------------
 Center     Atomic     Atomic              Coordinates (Angstroms)
 Number     Number      Type              X           Y           Z
 ---------------------------------------------------------------------
    1          6             0        0.896100    2.810300    0.000800
    2          1             0        1.060247    3.867634    0.001353
    3          7             0        1.902600    1.870200    0.000000
    4          7             0        1.377200    0.538000    0.000000
    5          6             0        0.000000    0.538000    0.000000
    6         16             0       -0.614500    2.093100    0.000800
    7         16             0       -1.038200   -0.907900   -0.000800
    8          8             0       -0.901451   -1.596007   -1.207679
    9          8             0       -0.901572   -1.597370    1.205236
   10          7             0       -2.490168   -0.004767   -0.000374
   11          1             0       -3.014646   -0.216378   -0.825107
   12          1             0       -3.029717   -0.241368    0.807638
 ---------------------------------------------------------------------
                    Distance matrix (angstroms):
                    1          2          3          4          5
     1  C    0.000000
     2  H    1.070000   0.000000
     3  N    1.377255   2.167788   0.000000
     4  N    2.322672   3.344686   1.432062   0.000000
     5  C    2.442610   3.494365   2.322637   1.377200   0.000000
     6  S    1.672211   2.440031   2.526950   2.526896   1.672109
     7  S    4.191244   5.216245   4.045509   2.815099   1.780024
     8  O    4.909903   5.929704   4.619067   3.347346   2.612487
     9  O    4.910178   5.929953   4.619526   3.347417   2.612515
    10  N    4.403569   5.253660   4.776182   3.905270   2.548634
    11  H    5.013665   5.828117   5.404990   4.531909   3.215273
    12  H    5.037430   5.853358   5.425749   4.547594   3.230926
                    6          7          8          9         10
     6  S    0.000000
     7  S    3.030763   0.000000
     8  O    3.892592   1.395976   0.000000
     9  O    3.892640   1.395908   2.412916   0.000000
    10  N    2.814104   1.709930   2.552186   2.552160   0.000000
    11  H    3.431692   2.250339   2.552515   3.239525   1.000020
    12  H    3.454562   2.250328   3.228942   2.554571   0.999988
                   11         12
    11  H    0.000000
    12  H    1.633006   0.000000
 Symmetry turned off by external request.
 Stoichiometry    C2H3N3O2S2
 Framework group  C1[X(C2H3N3O2S2)]
 Deg. of freedom    30
 Full point group                 C1
 Rotational constants (GHZ):      2.6665140      0.9427041      0.8024296
 Standard basis: 6-31G(d) (6D, 7F)
 Integral buffers will be    262144 words long.
 Raffenetti 1 integral format.
 Two-electron integral symmetry is turned off.
   149 basis functions,   312 primitive gaussians,   149 cartesian basis functions
    42 alpha electrons       42 beta electrons
       nuclear repulsion energy       663.4853663140 Hartrees.
 NAtoms=   12 NActive=   12 NUniq=   12 SFac= 7.50D-01 NAtFMM=   80 NAOKFM=F Big=F
 One-electron integrals computed using PRISM.
 NBasis=   149 RedAO= T  NBF=   149
 NBsUse=   149 1.00D-06 NBFU=   149
 Harris functional with IExCor=  205 diagonalized for initial guess.
 ExpMin= 1.17D-01 ExpMax= 2.19D+04 ExpMxC= 3.30D+03 IAcc=1 IRadAn=         1 AccDes= 1.00D-06
 HarFok:  IExCor= 205 AccDes= 1.00D-06 IRadAn=         1 IDoV=1
 ScaDFX=  1.000000  1.000000  1.000000  1.000000
 Requested convergence on RMS density matrix=1.00D-08 within 128 cycles.
 Requested convergence on MAX density matrix=1.00D-06.
 Requested convergence on             energy=1.00D-06.
 No special actions if energy rises.
 Keep R1 integrals in memory in canonical form, NReq=    65032955.
 SCF Done:  E(RHF) =  -1185.38989355     A.U. after   17 cycles
             Convg  =    0.3298D-08             -V/T =  2.0016
             S**2   =   0.0000
 ExpMin= 1.17D-01 ExpMax= 2.19D+04 ExpMxC= 3.30D+03 IAcc=1 IRadAn=         1 AccDes= 1.00D-06
 HarFok:  IExCor= 205 AccDes= 1.00D-06 IRadAn=         1 IDoV=1
 ScaDFX=  1.000000  1.000000  1.000000  1.000000
 Range of M.O.s used for correlation:    18   149
 NBasis=   149 NAE=    42 NBE=    42 NFC=    17 NFV=     0
 NROrb=    132 NOA=    25 NOB=    25 NVA=   107 NVB=   107
 Fully direct method using O(ONN) memory.
 JobTyp=1 Pass  1:  I=  18 to  42 NPSUse=  2 ParTrn=T ParDer=T DoDerP=T.
 Spin components of T(2) and E(2):
     alpha-alpha T2 =       0.6984864616D-01 E2=     -0.1949026284D+00
     alpha-beta  T2 =       0.3462170483D+00 E2=     -0.9992802739D+00
     beta-beta   T2 =       0.6984864616D-01 E2=     -0.1949026284D+00
 ANorm=    0.1218980861D+01
 E2 =    -0.1389085531D+01 EUMP2 =    -0.11867789790832D+04
 DoAtom=TTTTTTTTTTTT
          Differentiating once with respect to electric field.
                with respect to dipole field.
          Differentiating once with respect to nuclear coordinates.
          Store integrals in memory, NReq=    63266803.
          There are   1 degrees of freedom in the 1st order CPHF.
     1 vectors were produced by pass  0.
 AX will form   1 AO Fock derivatives at one time.
     1 vectors were produced by pass  1.
     1 vectors were produced by pass  2.
     1 vectors were produced by pass  3.
     1 vectors were produced by pass  4.
     1 vectors were produced by pass  5.
     1 vectors were produced by pass  6.
     1 vectors were produced by pass  7.
     1 vectors were produced by pass  8.
     1 vectors were produced by pass  9.
     1 vectors were produced by pass 10.
     1 vectors were produced by pass 11.
     1 vectors were produced by pass 12.
     1 vectors were produced by pass 13.
     1 vectors were produced by pass 14.
     1 vectors were produced by pass 15.
     1 vectors were produced by pass 16.
     1 vectors were produced by pass 17.
 Inv2:  IOpt= 1 Iter= 1 AM= 5.47D-16 Conv= 1.00D-12.
 Inverted reduced A of dimension   18 with in-core refinement.
 End of Minotr Frequency-dependent properties file   721 does not exist.

 **********************************************************************

            Population analysis using the SCF density.

 **********************************************************************

 Alpha  occ. eigenvalues --  -92.24996 -92.03210 -20.59037 -20.59021 -15.65938
 Alpha  occ. eigenvalues --  -15.64916 -15.63589 -11.35764 -11.34554  -9.22182
 Alpha  occ. eigenvalues --   -9.04434  -6.90849  -6.90758  -6.90699  -6.72661
 Alpha  occ. eigenvalues --   -6.72555  -6.72405  -1.53323  -1.40409  -1.34761
 Alpha  occ. eigenvalues --   -1.25272  -1.12508  -1.11688  -0.95188  -0.84813
 Alpha  occ. eigenvalues --   -0.80276  -0.75047  -0.73839  -0.73444  -0.67119
 Alpha  occ. eigenvalues --   -0.67011  -0.60556  -0.59205  -0.57655  -0.53891
 Alpha  occ. eigenvalues --   -0.53617  -0.51380  -0.49063  -0.47308  -0.45733
 Alpha  occ. eigenvalues --   -0.42235  -0.39929
 Alpha virt. eigenvalues --    0.06496   0.13009   0.15692   0.18457   0.20107
 Alpha virt. eigenvalues --    0.24637   0.24751   0.26804   0.27332   0.28957
 Alpha virt. eigenvalues --    0.31798   0.35133   0.38361   0.42668   0.48446
 Alpha virt. eigenvalues --    0.49898   0.49932   0.53974   0.58369   0.61239
 Alpha virt. eigenvalues --    0.64302   0.67459   0.74576   0.76865   0.77779
 Alpha virt. eigenvalues --    0.80618   0.82016   0.84709   0.88803   0.92058
 Alpha virt. eigenvalues --    0.95379   0.96239   0.98073   0.98840   0.99842
 Alpha virt. eigenvalues --    1.01223   1.04841   1.05832   1.07106   1.11357
 Alpha virt. eigenvalues --    1.11804   1.14169   1.14933   1.15161   1.16674
 Alpha virt. eigenvalues --    1.17581   1.17805   1.18367   1.25655   1.26613
 Alpha virt. eigenvalues --    1.30207   1.31897   1.33549   1.38765   1.42828
 Alpha virt. eigenvalues --    1.45911   1.46829   1.55522   1.58518   1.59018
 Alpha virt. eigenvalues --    1.61351   1.66017   1.73178   1.74033   1.80665
 Alpha virt. eigenvalues --    1.82812   1.94704   1.96448   1.99225   2.03057
 Alpha virt. eigenvalues --    2.06279   2.08771   2.10718   2.11074   2.14382
 Alpha virt. eigenvalues --    2.18570   2.23164   2.28458   2.31321   2.34419
 Alpha virt. eigenvalues --    2.42845   2.44948   2.45657   2.54381   2.55874
 Alpha virt. eigenvalues --    2.59318   2.61992   2.62466   2.69515   2.72136
 Alpha virt. eigenvalues --    2.74468   2.76355   2.91241   2.96731   3.13815
 Alpha virt. eigenvalues --    3.19861   3.22413   3.29302   3.98923   4.13181
 Alpha virt. eigenvalues --    4.25060   4.29678   4.32514   4.38740   4.41635
 Alpha virt. eigenvalues --    4.59504   4.68243
          Condensed to atoms (all electrons):
              1          2          3          4          5          6
     1  C    5.214351   0.378737   0.417761  -0.068994  -0.069400   0.305030
     2  H    0.378737   0.389148  -0.021092   0.002654   0.002203  -0.029252
     3  N    0.417761  -0.021092   6.710697   0.296048  -0.076158  -0.077482
     4  N   -0.068994   0.002654   0.296048   6.730151   0.368322  -0.079257
     5  C   -0.069400   0.002203  -0.076158   0.368322   5.724865   0.296303
     6  S    0.305030  -0.029252  -0.077482  -0.079257   0.296303  15.191798
     7  S   -0.000423   0.000010   0.000742  -0.011495   0.214634  -0.020843
     8  O   -0.000030   0.000000  -0.000008  -0.000400  -0.064517   0.000580
     9  O   -0.000030   0.000000  -0.000008  -0.000398  -0.064512   0.000589
    10  N    0.000740  -0.000004  -0.000130   0.001884  -0.067150  -0.022107
    11  H    0.000000   0.000000   0.000002  -0.000026   0.002065   0.000182
    12  H    0.000000   0.000000   0.000002  -0.000025   0.002162   0.000278
              7          8          9         10         11         12
     1  C   -0.000423  -0.000030  -0.000030   0.000740   0.000000   0.000000
     2  H    0.000010   0.000000   0.000000  -0.000004   0.000000   0.000000
     3  N    0.000742  -0.000008  -0.000008  -0.000130   0.000002   0.000002
     4  N   -0.011495  -0.000400  -0.000398   0.001884  -0.000026  -0.000025
     5  C    0.214634  -0.064517  -0.064512  -0.067150   0.002065   0.002162
     6  S   -0.020843   0.000580   0.000589  -0.022107   0.000182   0.000278
     7  S   12.838056   0.571458   0.571685   0.222011  -0.005355  -0.005883
     8  O    0.571458   8.191935  -0.050487  -0.054352   0.002186   0.000734
     9  O    0.571685  -0.050487   8.191100  -0.053902   0.000762   0.002238
    10  N    0.222011  -0.054352  -0.053902   7.383110   0.309941   0.310476
    11  H   -0.005355   0.002186   0.000762   0.309941   0.294041  -0.015121
    12  H   -0.005883   0.000734   0.002238   0.310476  -0.015121   0.293591
 Mulliken atomic charges:
              1
     1  C   -0.177741
     2  H    0.277596
     3  N   -0.250374
     4  N   -0.238463
     5  C   -0.268817
     6  S    0.434179
     7  S    1.625402
     8  O   -0.597100
     9  O   -0.597037
    10  N   -1.030518
    11  H    0.411323
    12  H    0.411549
 Sum of Mulliken charges=   0.00000
 Atomic charges with hydrogens summed into heavy atoms:
              1
     1  C    0.099855
     2  H    0.000000
     3  N   -0.250374
     4  N   -0.238463
     5  C   -0.268817
     6  S    0.434179
     7  S    1.625402
     8  O   -0.597100
     9  O   -0.597037
    10  N   -0.207645
    11  H    0.000000
    12  H    0.000000
 Sum of Mulliken charges=   0.00000
 Electronic spatial extent (au):  <R**2>=  1504.6210
 Charge=     0.0000 electrons
 Dipole moment (field-independent basis, Debye):
    X=    -5.3346    Y=     4.6533    Z=    -0.0206  Tot=     7.0790
 Quadrupole moment (field-independent basis, Debye-Ang):
   XX=   -60.1489   YY=   -59.8838   ZZ=   -69.3045
   XY=    -0.1704   XZ=     0.0656   YZ=    -0.0397
 Traceless Quadrupole moment (field-independent basis, Debye-Ang):
   XX=     2.9635   YY=     3.2286   ZZ=    -6.1921
   XY=    -0.1704   XZ=     0.0656   YZ=    -0.0397
 Octapole moment (field-independent basis, Debye-Ang**2):
  XXX=     5.1669  YYY=   -29.5195  ZZZ=     0.0193  XYY=    35.0096
  XXY=   -49.1827  XXZ=    -0.1112  XZZ=    21.4726  YZZ=   -24.1320
  YYZ=     0.0750  XYZ=     0.1383
 Hexadecapole moment (field-independent basis, Debye-Ang**3):
 XXXX=  -603.3701 YYYY=  -860.8677 ZZZZ=  -173.3488 XXXY=  -154.6293
 XXXZ=     0.0589 YYYX=  -127.7859 YYYZ=    -0.0520 ZZZX=     0.0367
 ZZZY=    -0.2144 XXYY=  -313.5568 XXZZ=  -130.9172 YYZZ=  -226.0329
 XXYZ=    -0.4504 YYXZ=    -0.0814 ZZXY=   -59.3707
 N-N= 6.634853663140D+02 E-N=-4.133647280121D+03  KE= 1.183553525137D+03
 -------------------------------------------------------------------
 Center     Atomic                   Forces (Hartrees/Bohr)
 Number     Number              X              Y              Z
 -------------------------------------------------------------------
    1          6           0.033659782   -0.058174134   -0.000116837
    2          1           0.003789445    0.008887082   -0.000008969
    3          7          -0.032336776   -0.013782865    0.000118373
    4          7          -0.015742855    0.029203662   -0.000106044
    5          6           0.062741362    0.011102267    0.000019541
    6         16          -0.048048046    0.027151818    0.000114729
    7         16          -0.019823813    0.083493260   -0.000137662
    8          8           0.007183429   -0.036819451   -0.086105367
    9          8           0.006834032   -0.036834282    0.086075064
   10          7           0.020671751   -0.007477232    0.000286514
   11          1          -0.009327983   -0.003166777   -0.017047398
   12          1          -0.009600328   -0.003583349    0.016908056
 -------------------------------------------------------------------
 Cartesian Forces:  Max     0.086105367 RMS     0.033463197

 GradGradGradGradGradGradGradGradGradGradGradGradGradGradGradGradGradGrad
 Berny optimization.
 Internal  Forces:  Max     0.093294461 RMS     0.023870191
 Search for a local minimum.
 Step number   1 out of a maximum of  61 on scan point     1 out of    13
 All quantities printed in internal units (Hartrees-Bohrs-Radians)
 Second derivative matrix not updated -- first step.
     Eigenvalues ---    0.00940   0.01165   0.01635   0.02026   0.02038
     Eigenvalues ---    0.04555   0.08749   0.10541   0.10993   0.15812
     Eigenvalues ---    0.16000   0.16000   0.16000   0.23486   0.25000
     Eigenvalues ---    0.25000   0.25000   0.27756   0.34721   0.37230
     Eigenvalues ---    0.37957   0.38023   0.40255   0.46742   0.47685
     Eigenvalues ---    0.47690   0.49288   1.24751   1.247931000.00000
     Eigenvalues --- 1000.000001000.000001000.000001000.000001000.00000
     Eigenvalues --- 1000.000001000.000001000.000001000.000001000.00000
     Eigenvalues --- 1000.000001000.000001000.000001000.000001000.00000
     Eigenvalues --- 1000.000001000.000001000.000001000.000001000.00000
     Eigenvalues --- 1000.00000
 RFO step:  Lambda=-4.47792619D-02.
 Linear search not attempted -- first point.
 Maximum step size (   0.300) exceeded in Quadratic search.
    -- Step size scaled by   0.957
 Iteration  1 RMS(Cart)=  0.10928150 RMS(Int)=  0.00472678
 Iteration  2 RMS(Cart)=  0.00670948 RMS(Int)=  0.00055478
 Iteration  3 RMS(Cart)=  0.00000445 RMS(Int)=  0.00055476
 Iteration  4 RMS(Cart)=  0.00000000 RMS(Int)=  0.00055476
 Iteration  1 RMS(Cart)=  0.00000098 RMS(Int)=  0.00000075
 Variable       Old X    -DE/DX   Delta X   Delta X   Delta X     New X
                                 (Linear)    (Quad)   (Total)
    R1        2.02201   0.00936   0.00000   0.02148   0.02148   2.04349
    R2        2.60263  -0.03313   0.00000  -0.06095  -0.06115   2.54149
    R3        3.16002   0.01391   0.00000   0.03288   0.03351   3.19353
    R4        2.70621  -0.05024   0.00000  -0.11099  -0.11180   2.59441
    R5        2.60253  -0.03369   0.00000  -0.06007  -0.06045   2.54208
    R6        3.15983   0.01942   0.00000   0.04655   0.04704   3.20686
    R7        3.36376   0.00593   0.00000   0.01762   0.01762   3.38137
    R8        2.63801   0.09329   0.00000   0.06908   0.06908   2.70709
    R9        2.63788   0.09323   0.00000   0.06901   0.06901   2.70690
   R10        3.23130  -0.00899   0.00000  -0.02196  -0.02196   3.20934
   R11        1.88976   0.01962   0.00000   0.03600   0.03600   1.92576
   R12        1.88970   0.01969   0.00000   0.03612   0.03612   1.92582
    A1        2.16808  -0.01400   0.00000  -0.05247  -0.05269   2.11539
    A2        2.16808  -0.00919   0.00000  -0.02997  -0.03019   2.13789
    A3        1.94702   0.02319   0.00000   0.08244   0.08288   2.02991
    A4        1.94644  -0.00028   0.00000  -0.01796  -0.01931   1.92713
    A5        1.94645   0.00111   0.00000  -0.00846  -0.01005   1.93640
    A6        1.94712   0.02096   0.00000   0.07248   0.07264   2.01975
    A7        2.19352  -0.02626   0.00000  -0.08746  -0.08754   2.10598
    A8        2.14255   0.00530   0.00000   0.01498   0.01490   2.15745
    A9        1.63774  -0.04498   0.00000  -0.12850  -0.12616   1.51159
   A10        1.92160  -0.00960   0.00000  -0.03140  -0.03084   1.89076
   A11        1.92169  -0.00949   0.00000  -0.03108  -0.03046   1.89123
   A12        1.63708   0.02802   0.00000   0.08767   0.08859   1.72566
   A13        2.08736   0.01356   0.00000   0.04911   0.04832   2.13568
   A14        1.92170  -0.00974   0.00000  -0.03291  -0.03244   1.88925
   A15        1.92173  -0.01015   0.00000  -0.03495  -0.03449   1.88724
   A16        1.91068  -0.00002   0.00000   0.00210   0.00208   1.91276
   A17        1.91070  -0.00003   0.00000   0.00207   0.00205   1.91275
   A18        1.91064   0.00115   0.00000   0.00977   0.00974   1.92038
    D1        3.14113   0.00002   0.00000   0.00024   0.00025   3.14139
    D2       -0.00046   0.00005   0.00000   0.00087   0.00089   0.00043
    D3       -3.14145  -0.00001   0.00000  -0.00008  -0.00007  -3.14151
    D4        0.00015  -0.00005   0.00000  -0.00072  -0.00071  -0.00057
    D5        0.00062  -0.00004   0.00000  -0.00063  -0.00061   0.00001
    D6       -0.00051   0.00000   0.00000   0.00007   0.00006  -0.00045
    D7        3.14104   0.00001   0.00000   0.00016   0.00015   3.14119
    D8        0.00022   0.00002   0.00000   0.00036   0.00035   0.00057
    D9       -3.14133   0.00002   0.00000   0.00028   0.00027  -3.14107
   D10       -1.16889  -0.00097   0.00000  -0.00575  -0.00613  -1.17502
   D11        1.16893   0.00117   0.00000   0.00769   0.00807   1.17699
   D12       -3.14155  -0.00011   0.00000  -0.00010  -0.00009   3.14155
   D13        1.97266  -0.00096   0.00000  -0.00565  -0.00604   1.96662
   D14       -1.97271   0.00117   0.00000   0.00779   0.00816  -1.96455
   D15        0.00000  -0.00011   0.00000   0.00000   0.00000   0.00000
   D16        2.07694  -0.00065   0.00000  -0.00639  -0.00637   2.07057
   D17       -2.11177   0.00072   0.00000   0.00812   0.00816  -2.10361
   D18        0.10437   0.00009   0.00000  -0.00204  -0.00160   0.10277
   D19        2.19884   0.00146   0.00000   0.01247   0.01293   2.21177
   D20       -2.23357  -0.00135   0.00000  -0.01085  -0.01134  -2.24491
   D21       -0.13909   0.00002   0.00000   0.00366   0.00319  -0.13591
         Item               Value     Threshold  Converged?
 Maximum Force            0.093294     0.000450     NO 
 RMS     Force            0.024108     0.000300     NO 
 Maximum Displacement     0.289923     0.001800     NO 
 RMS     Displacement     0.108269     0.001200     NO 
 Predicted change in Energy=-2.437588D-02
 GradGradGradGradGradGradGradGradGradGradGradGradGradGradGradGradGradGrad

                          Input orientation:                          
 ---------------------------------------------------------------------
 Center     Atomic     Atomic              Coordinates (Angstroms)
 Number     Number      Type              X           Y           Z
 ---------------------------------------------------------------------
    1          6             0        0.951618    2.758410    0.000762
    2          1             0        1.213668    3.807546    0.001340
    3          7             0        1.898827    1.803662    0.000399
    4          7             0        1.322730    0.557478   -0.000061
    5          6             0       -0.019425    0.648107   -0.000033
    6         16             0       -0.651295    2.223081    0.001233
    7         16             0       -1.033610   -0.826066   -0.001203
    8          8             0       -0.857047   -1.493445   -1.256425
    9          8             0       -0.859610   -1.494413    1.253741
   10          7             0       -2.564516   -0.090820   -0.000607
   11          1             0       -3.071756   -0.356941   -0.843452
   12          1             0       -3.083691   -0.383154    0.826172
 ---------------------------------------------------------------------
                    Distance matrix (angstroms):
                    1          2          3          4          5
     1  C    0.000000
     2  H    1.081368   0.000000
     3  N    1.344897   2.117781   0.000000
     4  N    2.232000   3.251897   1.372902   0.000000
     5  C    2.322995   3.391544   2.239419   1.345212   0.000000
     6  S    1.689943   2.447164   2.584383   2.582830   1.696999
     7  S    4.097512   5.149818   3.938866   2.732497   1.789346
     8  O    4.788535   5.828408   4.477205   3.245947   2.620377
     9  O    4.789260   5.829044   4.478520   3.247290   2.620735
    10  N    4.525629   5.428806   4.848762   3.940936   2.650189
    11  H    5.158066   6.035021   5.485160   4.567163   3.322378
    12  H    5.180198   6.058845   5.503595   4.580830   3.337041
                    6          7          8          9         10
     6  S    0.000000
     7  S    3.073023   0.000000
     8  O    3.928945   1.432533   0.000000
     9  O    3.928350   1.432428   2.510167   0.000000
    10  N    3.002426   1.698311   2.541630   2.539717   0.000000
    11  H    3.637120   2.254661   2.523316   3.253559   1.019068
    12  H    3.659172   2.254673   3.244672   2.522746   1.019100
                   11         12
    11  H    0.000000
    12  H    1.669872   0.000000
 Symmetry turned off by external request.
 Stoichiometry    C2H3N3O2S2
 Framework group  C1[X(C2H3N3O2S2)]
 Deg. of freedom    30
 Full point group                 C1
 Rotational constants (GHZ):      2.5516514      0.9544349      0.8099374
 Standard basis: 6-31G(d) (6D, 7F)
 Integral buffers will be    262144 words long.
 Raffenetti 1 integral format.
 Two-electron integral symmetry is turned off.
   149 basis functions,   312 primitive gaussians,   149 cartesian basis functions
    42 alpha electrons       42 beta electrons
       nuclear repulsion energy       660.7012696796 Hartrees.
 NAtoms=   12 NActive=   12 NUniq=   12 SFac= 7.50D-01 NAtFMM=   80 NAOKFM=F Big=F
 One-electron integrals computed using PRISM.
 NBasis=   149 RedAO= T  NBF=   149
 NBsUse=   149 1.00D-06 NBFU=   149
 Initial guess read from the read-write file:
 Harris functional with IExCor=  205 diagonalized for initial guess.
 ExpMin= 1.17D-01 ExpMax= 2.19D+04 ExpMxC= 3.30D+03 IAcc=1 IRadAn=         1 AccDes= 1.00D-06
 HarFok:  IExCor= 205 AccDes= 1.00D-06 IRadAn=         1 IDoV=1
 ScaDFX=  1.000000  1.000000  1.000000  1.000000
 Requested convergence on RMS density matrix=1.00D-08 within 128 cycles.
 Requested convergence on MAX density matrix=1.00D-06.
 Requested convergence on             energy=1.00D-06.
 No special actions if energy rises.
 Keep R1 integrals in memory in canonical form, NReq=    65032955.
 SCF Done:  E(RHF) =  -1185.41656773     A.U. after   14 cycles
             Convg  =    0.7042D-08             -V/T =  2.0017
             S**2   =   0.0000
 ExpMin= 1.17D-01 ExpMax= 2.19D+04 ExpMxC= 3.30D+03 IAcc=1 IRadAn=         1 AccDes= 1.00D-06
 HarFok:  IExCor= 205 AccDes= 1.00D-06 IRadAn=         1 IDoV=1
 ScaDFX=  1.000000  1.000000  1.000000  1.000000
 Range of M.O.s used for correlation:    18   149
 NBasis=   149 NAE=    42 NBE=    42 NFC=    17 NFV=     0
 NROrb=    132 NOA=    25 NOB=    25 NVA=   107 NVB=   107
 Fully direct method using O(ONN) memory.
 JobTyp=1 Pass  1:  I=  18 to  42 NPSUse=  2 ParTrn=T ParDer=T DoDerP=T.
 Spin components of T(2) and E(2):
     alpha-alpha T2 =       0.6941917756D-01 E2=     -0.1946769530D+00
     alpha-beta  T2 =       0.3445266567D+00 E2=     -0.9985093986D+00
     beta-beta   T2 =       0.6941917756D-01 E2=     -0.1946769530D+00
 ANorm=    0.1217934732D+01
 E2 =    -0.1387863305D+01 EUMP2 =    -0.11868044310381D+04
 DoAtom=TTTTTTTTTTTT
          Differentiating once with respect to electric field.
                with respect to dipole field.
          Differentiating once with respect to nuclear coordinates.
          Store integrals in memory, NReq=    63266803.
          There are   1 degrees of freedom in the 1st order CPHF.
     1 vectors were produced by pass  0.
 AX will form   1 AO Fock derivatives at one time.
     1 vectors were produced by pass  1.
     1 vectors were produced by pass  2.
     1 vectors were produced by pass  3.
     1 vectors were produced by pass  4.
     1 vectors were produced by pass  5.
     1 vectors were produced by pass  6.
     1 vectors were produced by pass  7.
     1 vectors were produced by pass  8.
     1 vectors were produced by pass  9.
     1 vectors were produced by pass 10.
     1 vectors were produced by pass 11.
     1 vectors were produced by pass 12.
     1 vectors were produced by pass 13.
     1 vectors were produced by pass 14.
     1 vectors were produced by pass 15.
     1 vectors were produced by pass 16.
     1 vectors were produced by pass 17.
 Inv2:  IOpt= 1 Iter= 1 AM= 4.88D-16 Conv= 1.00D-12.
 Inverted reduced A of dimension   18 with in-core refinement.
 End of Minotr Frequency-dependent properties file   721 does not exist.
 -------------------------------------------------------------------
 Center     Atomic                   Forces (Hartrees/Bohr)
 Number     Number              X              Y              Z
 -------------------------------------------------------------------
    1          6           0.025247648   -0.003151095    0.000014402
    2          1           0.000432030    0.001831536   -0.000005624
    3          7          -0.019047740    0.004269818    0.000016715
    4          7          -0.017541169    0.004969056   -0.000064850
    5          6           0.018294394   -0.012322512    0.000012887
    6         16          -0.011449927    0.004095982    0.000020748
    7         16          -0.011856711    0.029578554   -0.000002637
    8          8           0.004470302   -0.013517147   -0.031050641
    9          8           0.004267808   -0.013610437    0.031091877
   10          7           0.006173743   -0.002776533   -0.000128483
   11          1           0.000441864    0.000305912   -0.001830621
   12          1           0.000567760    0.000326865    0.001926228
 -------------------------------------------------------------------
 Cartesian Forces:  Max     0.031091877 RMS     0.012252951

 GradGradGradGradGradGradGradGradGradGradGradGradGradGradGradGradGradGrad
 Berny optimization.
 Internal  Forces:  Max     0.034108297 RMS     0.008291673
 Search for a local minimum.
 Step number   2 out of a maximum of  61 on scan point     1 out of    13
 All quantities printed in internal units (Hartrees-Bohrs-Radians)
 Update second derivatives using D2CorX and points  1  2
 Trust test= 1.04D+00 RLast= 3.03D-01 DXMaxT set to 4.24D-01
     Eigenvalues ---    0.00968   0.01165   0.01659   0.02027   0.02036
     Eigenvalues ---    0.04490   0.08207   0.10823   0.11656   0.15988
     Eigenvalues ---    0.16000   0.16010   0.16598   0.23874   0.24769
     Eigenvalues ---    0.25000   0.27570   0.30247   0.33238   0.35730
     Eigenvalues ---    0.37259   0.37672   0.42301   0.46007   0.46676
     Eigenvalues ---    0.47688   0.49530   1.06578   1.247721000.00000
     Eigenvalues --- 1000.000001000.000001000.000001000.000001000.00000
     Eigenvalues --- 1000.000001000.000001000.000001000.000001000.00000
     Eigenvalues --- 1000.000001000.000001000.000001000.000001000.00000
     Eigenvalues --- 1000.000001000.000001000.000001000.000001000.00000
     Eigenvalues --- 1000.00000
 RFO step:  Lambda=-5.05396655D-03.
 Quartic linear search produced a step of  0.22895.
 Iteration  1 RMS(Cart)=  0.03212383 RMS(Int)=  0.00053659
 Iteration  2 RMS(Cart)=  0.00065571 RMS(Int)=  0.00007855
 Iteration  3 RMS(Cart)=  0.00000024 RMS(Int)=  0.00007855
 Iteration  1 RMS(Cart)=  0.00000065 RMS(Int)=  0.00000051
 Variable       Old X    -DE/DX   Delta X   Delta X   Delta X     New X
                                 (Linear)    (Quad)   (Total)
    R1        2.04349   0.00188   0.00492   0.00320   0.00812   2.05161
    R2        2.54149  -0.01637  -0.01400  -0.03210  -0.04606   2.49543
    R3        3.19353   0.01072   0.00767   0.03091   0.03869   3.23222
    R4        2.59441  -0.00359  -0.02560   0.00200  -0.02367   2.57074
    R5        2.54208  -0.02045  -0.01384  -0.04381  -0.05775   2.48434
    R6        3.20686   0.00977   0.01077   0.02454   0.03531   3.24217
    R7        3.38137  -0.00256   0.00403  -0.01369  -0.00966   3.37172
    R8        2.70709   0.03406   0.01582   0.02536   0.04118   2.74827
    R9        2.70690   0.03411   0.01580   0.02541   0.04121   2.74810
   R10        3.20934  -0.00740  -0.00503  -0.02279  -0.02782   3.18152
   R11        1.92576   0.00121   0.00824  -0.00159   0.00665   1.93241
   R12        1.92582   0.00118   0.00827  -0.00169   0.00657   1.93239
    A1        2.11539   0.00324  -0.01206   0.02364   0.01151   2.12690
    A2        2.13789   0.00319  -0.00691   0.01938   0.01240   2.15029
    A3        2.02991  -0.00644   0.01898  -0.04302  -0.02391   2.00599
    A4        1.92713   0.00723  -0.00442   0.03444   0.02997   1.95710
    A5        1.93640   0.00355  -0.00230   0.01099   0.00847   1.94487
    A6        2.01975  -0.00218   0.01663  -0.02183  -0.00528   2.01448
    A7        2.10598  -0.00337  -0.02004  -0.00290  -0.02291   2.08307
    A8        2.15745   0.00555   0.00341   0.02473   0.02818   2.18564
    A9        1.51159  -0.00216  -0.02888   0.01942  -0.00925   1.50234
   A10        1.89076  -0.00100  -0.00706  -0.00567  -0.01262   1.87814
   A11        1.89123  -0.00092  -0.00697  -0.00531  -0.01217   1.87906
   A12        1.72566  -0.00165   0.02028  -0.02897  -0.00856   1.71711
   A13        2.13568   0.00228   0.01106   0.01678   0.02762   2.16330
   A14        1.88925   0.00029  -0.00743   0.00702  -0.00042   1.88883
   A15        1.88724   0.00017  -0.00790   0.00624  -0.00167   1.88557
   A16        1.91276  -0.00064   0.00048  -0.00168  -0.00121   1.91155
   A17        1.91275  -0.00083   0.00047  -0.00307  -0.00260   1.91014
   A18        1.92038   0.00145   0.00223   0.01591   0.01812   1.93850
    D1        3.14139   0.00001   0.00006   0.00040   0.00045  -3.14135
    D2        0.00043   0.00000   0.00020  -0.00063  -0.00043   0.00000
    D3       -3.14151   0.00000  -0.00002   0.00004   0.00002  -3.14150
    D4       -0.00057   0.00001  -0.00016   0.00108   0.00091   0.00034
    D5        0.00001  -0.00001  -0.00014  -0.00036  -0.00050  -0.00048
    D6       -0.00045   0.00001   0.00001   0.00121   0.00122   0.00077
    D7        3.14119   0.00001   0.00003   0.00016   0.00021   3.14140
    D8        0.00057  -0.00001   0.00008  -0.00128  -0.00121  -0.00064
    D9       -3.14107  -0.00001   0.00006  -0.00020  -0.00013  -3.14120
   D10       -1.17502  -0.00070  -0.00140  -0.00520  -0.00665  -1.18167
   D11        1.17699   0.00078   0.00185   0.00821   0.01010   1.18710
   D12        3.14155  -0.00001  -0.00002   0.00114   0.00112  -3.14052
   D13        1.96662  -0.00070  -0.00138  -0.00634  -0.00777   1.95885
   D14       -1.96455   0.00078   0.00187   0.00707   0.00898  -1.95556
   D15        0.00000  -0.00001   0.00000   0.00000   0.00000   0.00000
   D16        2.07057  -0.00040  -0.00146  -0.00548  -0.00693   2.06364
   D17       -2.10361   0.00047   0.00187   0.01117   0.01304  -2.09057
   D18        0.10277   0.00130  -0.00037   0.01084   0.01058   0.11335
   D19        2.21177   0.00217   0.00296   0.02748   0.03056   2.24233
   D20       -2.24491  -0.00205  -0.00260  -0.02157  -0.02429  -2.26919
   D21       -0.13591  -0.00119   0.00073  -0.00492  -0.00431  -0.14022
         Item               Value     Threshold  Converged?
 Maximum Force            0.034108     0.000450     NO 
 RMS     Force            0.008374     0.000300     NO 
 Maximum Displacement     0.108058     0.001800     NO 
 RMS     Displacement     0.032186     0.001200     NO 
 Predicted change in Energy=-3.489141D-03
 GradGradGradGradGradGradGradGradGradGradGradGradGradGradGradGradGradGrad

                          Input orientation:                          
 ---------------------------------------------------------------------
 Center     Atomic     Atomic              Coordinates (Angstroms)
 Number     Number      Type              X           Y           Z
 ---------------------------------------------------------------------
    1          6             0        0.970995    2.763268    0.001351
    2          1             0        1.270646    3.806760    0.002139
    3          7             0        1.856573    1.783713    0.000231
    4          7             0        1.265549    0.558432   -0.000926
    5          6             0       -0.045374    0.657417   -0.000046
    6         16             0       -0.663097    2.258035    0.001076
    7         16             0       -1.034552   -0.827516   -0.001596
    8          8             0       -0.841524   -1.483407   -1.285185
    9          8             0       -0.846721   -1.484130    1.282294
   10          7             0       -2.556827   -0.108384   -0.001501
   11          1             0       -3.060329   -0.374018   -0.850978
   12          1             0       -3.069446   -0.396726    0.835008
 ---------------------------------------------------------------------
                    Distance matrix (angstroms):
                    1          2          3          4          5
     1  C    0.000000
     2  H    1.085664   0.000000
     3  N    1.320522   2.106189   0.000000
     4  N    2.224425   3.248333   1.360376   0.000000
     5  C    2.338293   3.413249   2.210417   1.314654   0.000000
     6  S    1.710415   2.477481   2.563927   2.570667   1.715682
     7  S    4.112901   5.175950   3.895783   2.685389   1.784237
     8  O    4.793187   5.839891   4.427877   3.202840   2.620794
     9  O    4.794298   5.840852   4.430607   3.206306   2.621598
    10  N    4.548838   5.475209   4.801889   3.880103   2.625614
    11  H    5.178861   6.079807   5.436570   4.506137   3.298166
    12  H    5.196702   6.099128   5.451315   4.517000   3.309614
                    6          7          8          9         10
     6  S    0.000000
     7  S    3.107831   0.000000
     8  O    3.960391   1.454322   0.000000
     9  O    3.959677   1.454234   2.567484   0.000000
    10  N    3.030868   1.683589   2.545740   2.542689   0.000000
    11  H    3.660659   2.242963   2.518407   3.268525   1.022588
    12  H    3.678819   2.241937   3.261860   2.514561   1.022579
                   11         12
    11  H    0.000000
    12  H    1.686163   0.000000
 Symmetry turned off by external request.
 Stoichiometry    C2H3N3O2S2
 Framework group  C1[X(C2H3N3O2S2)]
 Deg. of freedom    30
 Full point group                 C1
 Rotational constants (GHZ):      2.5381731      0.9529778      0.8136519
 Standard basis: 6-31G(d) (6D, 7F)
 Integral buffers will be    262144 words long.
 Raffenetti 1 integral format.
 Two-electron integral symmetry is turned off.
   149 basis functions,   312 primitive gaussians,   149 cartesian basis functions
    42 alpha electrons       42 beta electrons
       nuclear repulsion energy       660.0018766051 Hartrees.
 NAtoms=   12 NActive=   12 NUniq=   12 SFac= 7.50D-01 NAtFMM=   80 NAOKFM=F Big=F
 One-electron integrals computed using PRISM.
 NBasis=   149 RedAO= T  NBF=   149
 NBsUse=   149 1.00D-06 NBFU=   149
 Initial guess read from the read-write file:
 Harris functional with IExCor=  205 diagonalized for initial guess.
 ExpMin= 1.17D-01 ExpMax= 2.19D+04 ExpMxC= 3.30D+03 IAcc=1 IRadAn=         1 AccDes= 1.00D-06
 HarFok:  IExCor= 205 AccDes= 1.00D-06 IRadAn=         1 IDoV=1
 ScaDFX=  1.000000  1.000000  1.000000  1.000000
 Requested convergence on RMS density matrix=1.00D-08 within 128 cycles.
 Requested convergence on MAX density matrix=1.00D-06.
 Requested convergence on             energy=1.00D-06.
 No special actions if energy rises.
 Keep R1 integrals in memory in canonical form, NReq=    65032955.
 SCF Done:  E(RHF) =  -1185.42197203     A.U. after   14 cycles
             Convg  =    0.3705D-08             -V/T =  2.0017
             S**2   =   0.0000
 ExpMin= 1.17D-01 ExpMax= 2.19D+04 ExpMxC= 3.30D+03 IAcc=1 IRadAn=         1 AccDes= 1.00D-06
 HarFok:  IExCor= 205 AccDes= 1.00D-06 IRadAn=         1 IDoV=1
 ScaDFX=  1.000000  1.000000  1.000000  1.000000
 Range of M.O.s used for correlation:    18   149
 NBasis=   149 NAE=    42 NBE=    42 NFC=    17 NFV=     0
 NROrb=    132 NOA=    25 NOB=    25 NVA=   107 NVB=   107
 Fully direct method using O(ONN) memory.
 JobTyp=1 Pass  1:  I=  18 to  42 NPSUse=  2 ParTrn=T ParDer=T DoDerP=T.
 Spin components of T(2) and E(2):
     alpha-alpha T2 =       0.6903624767D-01 E2=     -0.1942725203D+00
     alpha-beta  T2 =       0.3429390585D+00 E2=     -0.9970927525D+00
     beta-beta   T2 =       0.6903624767D-01 E2=     -0.1942725203D+00
 ANorm=    0.1216968181D+01
 E2 =    -0.1385637793D+01 EUMP2 =    -0.11868076098244D+04
 DoAtom=TTTTTTTTTTTT
          Differentiating once with respect to electric field.
                with respect to dipole field.
          Differentiating once with respect to nuclear coordinates.
          Store integrals in memory, NReq=    63266803.
          There are   1 degrees of freedom in the 1st order CPHF.
     1 vectors were produced by pass  0.
 AX will form   1 AO Fock derivatives at one time.
     1 vectors were produced by pass  1.
     1 vectors were produced by pass  2.
     1 vectors were produced by pass  3.
     1 vectors were produced by pass  4.
     1 vectors were produced by pass  5.
     1 vectors were produced by pass  6.
     1 vectors were produced by pass  7.
     1 vectors were produced by pass  8.
     1 vectors were produced by pass  9.
     1 vectors were produced by pass 10.
     1 vectors were produced by pass 11.
     1 vectors were produced by pass 12.
     1 vectors were produced by pass 13.
     1 vectors were produced by pass 14.
     1 vectors were produced by pass 15.
     1 vectors were produced by pass 16.
     1 vectors were produced by pass 17.
 Inv2:  IOpt= 1 Iter= 1 AM= 4.57D-16 Conv= 1.00D-12.
 Inverted reduced A of dimension   18 with in-core refinement.
 End of Minotr Frequency-dependent properties file   721 does not exist.
 -------------------------------------------------------------------
 Center     Atomic                   Forces (Hartrees/Bohr)
 Number     Number              X              Y              Z
 -------------------------------------------------------------------
    1          6           0.002296436    0.002055048   -0.000055626
    2          1          -0.001384567   -0.001285366    0.000000699
    3          7           0.007997230    0.001761395    0.000011968
    4          7           0.002524101   -0.001827820    0.000036930
    5          6          -0.003245169   -0.002436154   -0.000093392
    6         16          -0.006009577    0.000880548    0.000103461
    7         16          -0.002288852    0.009306512    0.000012178
    8          8           0.000586085   -0.003113916   -0.002608154
    9          8           0.000589210   -0.003195880    0.002666618
   10          7          -0.002024471   -0.004075606   -0.000158188
   11          1           0.000452985    0.000903262    0.001745571
   12          1           0.000506591    0.001027976   -0.001662065
 -------------------------------------------------------------------
 Cartesian Forces:  Max     0.009306512 RMS     0.002879327

 GradGradGradGradGradGradGradGradGradGradGradGradGradGradGradGradGradGrad
 Berny optimization.
 Internal  Forces:  Max     0.006060580 RMS     0.001956989
 Search for a local minimum.
 Step number   3 out of a maximum of  61 on scan point     1 out of    13
 All quantities printed in internal units (Hartrees-Bohrs-Radians)
 Update second derivatives using D2CorX and points  1  2  3
 Trust test= 9.11D-01 RLast= 1.42D-01 DXMaxT set to 4.25D-01
     Eigenvalues ---    0.00967   0.01165   0.01646   0.02027   0.02036
     Eigenvalues ---    0.04426   0.08382   0.11342   0.11661   0.15990
     Eigenvalues ---    0.16000   0.16069   0.16463   0.23825   0.24556
     Eigenvalues ---    0.25589   0.27340   0.28979   0.33557   0.35261
     Eigenvalues ---    0.37284   0.37806   0.43308   0.46667   0.47688
     Eigenvalues ---    0.49248   0.51670   0.97632   1.247721000.00000
     Eigenvalues --- 1000.000001000.000001000.000001000.000001000.00000
     Eigenvalues --- 1000.000001000.000001000.000001000.000001000.00000
     Eigenvalues --- 1000.000001000.000001000.000001000.000001000.00000
     Eigenvalues --- 1000.000001000.000001000.000001000.000001000.00000
     Eigenvalues --- 1000.00000
 RFO step:  Lambda=-5.04474886D-04.
 Quartic linear search produced a step of -0.07201.
 Iteration  1 RMS(Cart)=  0.01294958 RMS(Int)=  0.00007441
 Iteration  2 RMS(Cart)=  0.00009122 RMS(Int)=  0.00002369
 Iteration  3 RMS(Cart)=  0.00000000 RMS(Int)=  0.00002369
 Iteration  1 RMS(Cart)=  0.00000024 RMS(Int)=  0.00000019
 Variable       Old X    -DE/DX   Delta X   Delta X   Delta X     New X
                                 (Linear)    (Quad)   (Total)
    R1        2.05161  -0.00162  -0.00058  -0.00303  -0.00362   2.04799
    R2        2.49543   0.00359   0.00332   0.00057   0.00388   2.49931
    R3        3.23222   0.00502  -0.00279   0.01693   0.01415   3.24637
    R4        2.57074   0.00395   0.00170   0.00657   0.00827   2.57901
    R5        2.48434   0.00606   0.00416   0.00382   0.00798   2.49232
    R6        3.24217   0.00097  -0.00254   0.00699   0.00445   3.24662
    R7        3.37172   0.00050   0.00070   0.00024   0.00094   3.37266
    R8        2.74827   0.00378  -0.00297   0.00834   0.00538   2.75365
    R9        2.74810   0.00387  -0.00297   0.00841   0.00545   2.75355
   R10        3.18152   0.00005   0.00200  -0.00369  -0.00169   3.17983
   R11        1.93241  -0.00191  -0.00048  -0.00298  -0.00346   1.92895
   R12        1.93239  -0.00190  -0.00047  -0.00298  -0.00345   1.92894
    A1        2.12690  -0.00031  -0.00083   0.00255   0.00172   2.12862
    A2        2.15029  -0.00232  -0.00089  -0.00917  -0.01007   2.14022
    A3        2.00599   0.00263   0.00172   0.00663   0.00835   2.01434
    A4        1.95710  -0.00369  -0.00216  -0.00929  -0.01146   1.94565
    A5        1.94487   0.00173  -0.00061   0.00861   0.00799   1.95286
    A6        2.01448  -0.00021   0.00038  -0.00186  -0.00148   2.01299
    A7        2.08307   0.00123   0.00165   0.00180   0.00345   2.08652
    A8        2.18564  -0.00102  -0.00203   0.00006  -0.00197   2.18367
    A9        1.50234  -0.00046   0.00067  -0.00409  -0.00341   1.49893
   A10        1.87814  -0.00021   0.00091   0.00051   0.00139   1.87952
   A11        1.87906  -0.00022   0.00088   0.00050   0.00134   1.88040
   A12        1.71711   0.00420   0.00062   0.02018   0.02075   1.73785
   A13        2.16330  -0.00115  -0.00199  -0.01095  -0.01296   2.15034
   A14        1.88883  -0.00069   0.00003  -0.00139  -0.00143   1.88740
   A15        1.88557  -0.00061   0.00012  -0.00139  -0.00134   1.88423
   A16        1.91155   0.00095   0.00009   0.00729   0.00734   1.91889
   A17        1.91014   0.00095   0.00019   0.00710   0.00725   1.91739
   A18        1.93850  -0.00060  -0.00131   0.00271   0.00133   1.93984
    D1       -3.14135  -0.00001  -0.00003  -0.00018  -0.00022  -3.14156
    D2        0.00000   0.00003   0.00003   0.00108   0.00111   0.00111
    D3       -3.14150   0.00000   0.00000  -0.00010  -0.00011   3.14158
    D4        0.00034  -0.00004  -0.00007  -0.00137  -0.00145  -0.00110
    D5       -0.00048   0.00001   0.00004   0.00001   0.00005  -0.00043
    D6        0.00077  -0.00004  -0.00009  -0.00110  -0.00119  -0.00042
    D7        3.14140  -0.00001  -0.00002  -0.00093  -0.00094   3.14045
    D8       -0.00064   0.00004   0.00009   0.00140   0.00148   0.00084
    D9       -3.14120   0.00001   0.00001   0.00121   0.00122  -3.13998
   D10       -1.18167   0.00091   0.00048   0.00658   0.00709  -1.17459
   D11        1.18710  -0.00093  -0.00073  -0.00695  -0.00771   1.17939
   D12       -3.14052   0.00003  -0.00008  -0.00019  -0.00027  -3.14079
   D13        1.95885   0.00095   0.00056   0.00677   0.00736   1.96621
   D14       -1.95556  -0.00090  -0.00065  -0.00677  -0.00744  -1.96300
   D15        0.00000   0.00007   0.00000   0.00000   0.00000   0.00000
   D16        2.06364  -0.00020   0.00050  -0.00337  -0.00289   2.06075
   D17       -2.09057   0.00026  -0.00094   0.00917   0.00825  -2.08232
   D18        0.11335  -0.00150  -0.00076  -0.01187  -0.01265   0.10070
   D19        2.24233  -0.00104  -0.00220   0.00068  -0.00151   2.24082
   D20       -2.26919   0.00110   0.00175   0.00504   0.00677  -2.26242
   D21       -0.14022   0.00157   0.00031   0.01758   0.01791  -0.12230
         Item               Value     Threshold  Converged?
 Maximum Force            0.006061     0.000450     NO 
 RMS     Force            0.001976     0.000300     NO 
 Maximum Displacement     0.033941     0.001800     NO 
 RMS     Displacement     0.012900     0.001200     NO 
 Predicted change in Energy=-2.724262D-04
 GradGradGradGradGradGradGradGradGradGradGradGradGradGradGradGradGradGrad

                          Input orientation:                          
 ---------------------------------------------------------------------
 Center     Atomic     Atomic              Coordinates (Angstroms)
 Number     Number      Type              X           Y           Z
 ---------------------------------------------------------------------
    1          6             0        0.984807    2.766559    0.000880
    2          1             0        1.279193    3.809560    0.001303
    3          7             0        1.874534    1.787993    0.000761
    4          7             0        1.271026    0.563930    0.000164
    5          6             0       -0.044044    0.664068    0.000388
    6         16             0       -0.659218    2.268189    0.001998
    7         16             0       -1.039556   -0.817223   -0.002072
    8          8             0       -0.841894   -1.481384   -1.283929
    9          8             0       -0.847714   -1.483184    1.279678
   10          7             0       -2.572787   -0.123921   -0.002166
   11          1             0       -3.075568   -0.390843   -0.849463
   12          1             0       -3.082885   -0.410299    0.834327
 ---------------------------------------------------------------------
                    Distance matrix (angstroms):
                    1          2          3          4          5
     1  C    0.000000
     2  H    1.083750   0.000000
     3  N    1.322576   2.107407   0.000000
     4  N    2.221147   3.245640   1.364753   0.000000
     5  C    2.340727   3.412488   2.223544   1.318877   0.000000
     6  S    1.717904   2.476542   2.578855   2.574946   1.718035
     7  S    4.116011   5.175300   3.908847   2.691910   1.784734
     8  O    4.799229   5.843365   4.440522   3.208838   2.624691
     9  O    4.801434   5.845606   4.443744   3.211992   2.625483
    10  N    4.583815   5.505455   4.840877   3.904875   2.648674
    11  H    5.213340   6.109921   5.474826   4.530600   3.320425
    12  H    5.228114   6.126080   5.486650   4.538886   3.329305
                    6          7          8          9         10
     6  S    0.000000
     7  S    3.108768   0.000000
     8  O    3.968158   1.457168   0.000000
     9  O    3.967467   1.457117   2.563614   0.000000
    10  N    3.063324   1.682696   2.545902   2.542950   0.000000
    11  H    3.692450   2.246155   2.523359   3.269523   1.020758
    12  H    3.706916   2.245070   3.264395   2.519009   1.020751
                   11         12
    11  H    0.000000
    12  H    1.683919   0.000000
 Symmetry turned off by external request.
 Stoichiometry    C2H3N3O2S2
 Framework group  C1[X(C2H3N3O2S2)]
 Deg. of freedom    30
 Full point group                 C1
 Rotational constants (GHZ):      2.5308033      0.9473688      0.8083878
 Standard basis: 6-31G(d) (6D, 7F)
 Integral buffers will be    262144 words long.
 Raffenetti 1 integral format.
 Two-electron integral symmetry is turned off.
   149 basis functions,   312 primitive gaussians,   149 cartesian basis functions
    42 alpha electrons       42 beta electrons
       nuclear repulsion energy       658.5187933826 Hartrees.
 NAtoms=   12 NActive=   12 NUniq=   12 SFac= 7.50D-01 NAtFMM=   80 NAOKFM=F Big=F
 One-electron integrals computed using PRISM.
 NBasis=   149 RedAO= T  NBF=   149
 NBsUse=   149 1.00D-06 NBFU=   149
 Initial guess read from the read-write file:
 Harris functional with IExCor=  205 diagonalized for initial guess.
 ExpMin= 1.17D-01 ExpMax= 2.19D+04 ExpMxC= 3.30D+03 IAcc=1 IRadAn=         1 AccDes= 1.00D-06
 HarFok:  IExCor= 205 AccDes= 1.00D-06 IRadAn=         1 IDoV=1
 ScaDFX=  1.000000  1.000000  1.000000  1.000000
 Requested convergence on RMS density matrix=1.00D-08 within 128 cycles.
 Requested convergence on MAX density matrix=1.00D-06.
 Requested convergence on             energy=1.00D-06.
 No special actions if energy rises.
 Keep R1 integrals in memory in canonical form, NReq=    65032955.
 SCF Done:  E(RHF) =  -1185.42123641     A.U. after   12 cycles
             Convg  =    0.8443D-08             -V/T =  2.0018
             S**2   =   0.0000
 ExpMin= 1.17D-01 ExpMax= 2.19D+04 ExpMxC= 3.30D+03 IAcc=1 IRadAn=         1 AccDes= 1.00D-06
 HarFok:  IExCor= 205 AccDes= 1.00D-06 IRadAn=         1 IDoV=1
 ScaDFX=  1.000000  1.000000  1.000000  1.000000
 Range of M.O.s used for correlation:    18   149
 NBasis=   149 NAE=    42 NBE=    42 NFC=    17 NFV=     0
 NROrb=    132 NOA=    25 NOB=    25 NVA=   107 NVB=   107
 Fully direct method using O(ONN) memory.
 JobTyp=1 Pass  1:  I=  18 to  42 NPSUse=  2 ParTrn=T ParDer=T DoDerP=T.
 Spin components of T(2) and E(2):
     alpha-alpha T2 =       0.6919871334D-01 E2=     -0.1943445975D+00
     alpha-beta  T2 =       0.3439408039D+00 E2=     -0.9979270857D+00
     beta-beta   T2 =       0.6919871334D-01 E2=     -0.1943445975D+00
 ANorm=    0.1217513134D+01
 E2 =    -0.1386616281D+01 EUMP2 =    -0.11868078526940D+04
 DoAtom=TTTTTTTTTTTT
          Differentiating once with respect to electric field.
                with respect to dipole field.
          Differentiating once with respect to nuclear coordinates.
          Store integrals in memory, NReq=    63266803.
          There are   1 degrees of freedom in the 1st order CPHF.
     1 vectors were produced by pass  0.
 AX will form   1 AO Fock derivatives at one time.
     1 vectors were produced by pass  1.
     1 vectors were produced by pass  2.
     1 vectors were produced by pass  3.
     1 vectors were produced by pass  4.
     1 vectors were produced by pass  5.
     1 vectors were produced by pass  6.
     1 vectors were produced by pass  7.
     1 vectors were produced by pass  8.
     1 vectors were produced by pass  9.
     1 vectors were produced by pass 10.
     1 vectors were produced by pass 11.
     1 vectors were produced by pass 12.
     1 vectors were produced by pass 13.
     1 vectors were produced by pass 14.
     1 vectors were produced by pass 15.
     1 vectors were produced by pass 16.
     1 vectors were produced by pass 17.
 Inv2:  IOpt= 1 Iter= 1 AM= 5.23D-16 Conv= 1.00D-12.
 Inverted reduced A of dimension   18 with in-core refinement.
 End of Minotr Frequency-dependent properties file   721 does not exist.
 -------------------------------------------------------------------
 Center     Atomic                   Forces (Hartrees/Bohr)
 Number     Number              X              Y              Z
 -------------------------------------------------------------------
    1          6           0.000667225    0.000970929    0.000105428
    2          1          -0.000663673    0.000112130    0.000002246
    3          7          -0.000494787    0.000357556   -0.000047268
    4          7           0.000590925   -0.002881790   -0.000041117
    5          6          -0.000007397    0.000638705    0.000001241
    6         16          -0.000841757    0.000350500   -0.000061588
    7         16          -0.001566622    0.000080516    0.000094734
    8          8           0.000166764    0.000232393   -0.000394979
    9          8           0.000213720    0.000140105    0.000425731
   10          7           0.000739989   -0.000899106   -0.000133878
   11          1           0.000583267    0.000415917    0.000369203
   12          1           0.000612346    0.000482145   -0.000319754
 -------------------------------------------------------------------
 Cartesian Forces:  Max     0.002881790 RMS     0.000703423

 GradGradGradGradGradGradGradGradGradGradGradGradGradGradGradGradGradGrad
 Berny optimization.
 Internal  Forces:  Max     0.001831235 RMS     0.000638330
 Search for a local minimum.
 Step number   4 out of a maximum of  61 on scan point     1 out of    13
 All quantities printed in internal units (Hartrees-Bohrs-Radians)
 Update second derivatives using D2CorX and points  1  2  3  4
 Trust test= 8.92D-01 RLast= 4.91D-02 DXMaxT set to 4.25D-01
     Eigenvalues ---    0.00966   0.01163   0.01648   0.02027   0.02038
     Eigenvalues ---    0.04179   0.08170   0.11501   0.12485   0.15334
     Eigenvalues ---    0.16000   0.16147   0.16689   0.24348   0.24874
     Eigenvalues ---    0.25291   0.27757   0.30251   0.33675   0.36985
     Eigenvalues ---    0.37352   0.39095   0.41906   0.46968   0.47687
     Eigenvalues ---    0.47777   0.52086   0.95348   1.247721000.00000
     Eigenvalues --- 1000.000001000.000001000.000001000.000001000.00000
     Eigenvalues --- 1000.000001000.000001000.000001000.000001000.00000
     Eigenvalues --- 1000.000001000.000001000.000001000.000001000.00000
     Eigenvalues --- 1000.000001000.000001000.000001000.000001000.00000
     Eigenvalues --- 1000.00000
 RFO step:  Lambda=-6.61156854D-05.
 Quartic linear search produced a step of -0.09166.
 Iteration  1 RMS(Cart)=  0.00740790 RMS(Int)=  0.00001889
 Iteration  2 RMS(Cart)=  0.00002362 RMS(Int)=  0.00000249
 Iteration  3 RMS(Cart)=  0.00000000 RMS(Int)=  0.00000249
 Iteration  1 RMS(Cart)=  0.00000017 RMS(Int)=  0.00000013
 Variable       Old X    -DE/DX   Delta X   Delta X   Delta X     New X
                                 (Linear)    (Quad)   (Total)
    R1        2.04799  -0.00007   0.00033  -0.00091  -0.00058   2.04741
    R2        2.49931   0.00084  -0.00036   0.00235   0.00199   2.50130
    R3        3.24637  -0.00011  -0.00130   0.00289   0.00159   3.24796
    R4        2.57901   0.00123  -0.00076   0.00422   0.00346   2.58247
    R5        2.49232   0.00028  -0.00073   0.00223   0.00150   2.49381
    R6        3.24662   0.00053  -0.00041   0.00223   0.00183   3.24844
    R7        3.37266  -0.00079  -0.00009  -0.00225  -0.00234   3.37032
    R8        2.75365   0.00026  -0.00049   0.00154   0.00105   2.75470
    R9        2.75355   0.00034  -0.00050   0.00161   0.00111   2.75466
   R10        3.17983  -0.00176   0.00015  -0.00498  -0.00483   3.17501
   R11        1.92895  -0.00070   0.00032  -0.00197  -0.00165   1.92730
   R12        1.92894  -0.00070   0.00032  -0.00197  -0.00165   1.92729
    A1        2.12862   0.00086  -0.00016   0.00460   0.00445   2.13306
    A2        2.14022  -0.00051   0.00092  -0.00565  -0.00472   2.13550
    A3        2.01434  -0.00035  -0.00077   0.00105   0.00028   2.01462
    A4        1.94565   0.00099   0.00105   0.00113   0.00218   1.94782
    A5        1.95286  -0.00175  -0.00073  -0.00450  -0.00523   1.94763
    A6        2.01299   0.00128   0.00014   0.00459   0.00473   2.01772
    A7        2.08652  -0.00019  -0.00032  -0.00022  -0.00054   2.08599
    A8        2.18367  -0.00109   0.00018  -0.00437  -0.00419   2.17948
    A9        1.49893  -0.00017   0.00031  -0.00226  -0.00195   1.49698
   A10        1.87952   0.00014  -0.00013  -0.00066  -0.00078   1.87874
   A11        1.88040   0.00013  -0.00012  -0.00054  -0.00066   1.87974
   A12        1.73785  -0.00183  -0.00190  -0.00325  -0.00514   1.73271
   A13        2.15034   0.00012   0.00119   0.00065   0.00183   2.15217
   A14        1.88740   0.00043   0.00013   0.00112   0.00125   1.88865
   A15        1.88423   0.00055   0.00012   0.00177   0.00190   1.88612
   A16        1.91889  -0.00007  -0.00067   0.00255   0.00188   1.92077
   A17        1.91739  -0.00007  -0.00066   0.00254   0.00187   1.91927
   A18        1.93984   0.00033  -0.00012   0.00463   0.00450   1.94434
    D1       -3.14156   0.00000   0.00002   0.00002   0.00004  -3.14152
    D2        0.00111  -0.00005  -0.00010  -0.00226  -0.00236  -0.00125
    D3        3.14158   0.00000   0.00001   0.00019   0.00021  -3.14140
    D4       -0.00110   0.00006   0.00013   0.00250   0.00262   0.00152
    D5       -0.00043   0.00001   0.00000   0.00052   0.00052   0.00009
    D6       -0.00042   0.00003   0.00011   0.00142   0.00153   0.00111
    D7        3.14045   0.00004   0.00009   0.00099   0.00108   3.14153
    D8        0.00084  -0.00005  -0.00014  -0.00218  -0.00232  -0.00147
    D9       -3.13998  -0.00006  -0.00011  -0.00172  -0.00184   3.14137
   D10       -1.17459  -0.00020  -0.00065   0.00013  -0.00052  -1.17510
   D11        1.17939   0.00017   0.00071   0.00005   0.00076   1.18015
   D12       -3.14079   0.00005   0.00002   0.00047   0.00049  -3.14030
   D13        1.96621  -0.00019  -0.00067  -0.00033  -0.00101   1.96520
   D14       -1.96300   0.00018   0.00068  -0.00042   0.00026  -1.96274
   D15        0.00000   0.00006   0.00000   0.00000   0.00000   0.00000
   D16        2.06075  -0.00015   0.00026  -0.00249  -0.00223   2.05852
   D17       -2.08232   0.00017  -0.00076   0.00668   0.00592  -2.07639
   D18        0.10070   0.00034   0.00116  -0.00075   0.00041   0.10111
   D19        2.24082   0.00066   0.00014   0.00842   0.00856   2.24938
   D20       -2.26242  -0.00060  -0.00062  -0.00389  -0.00452  -2.26694
   D21       -0.12230  -0.00028  -0.00164   0.00528   0.00363  -0.11867
         Item               Value     Threshold  Converged?
 Maximum Force            0.001831     0.000450     NO 
 RMS     Force            0.000645     0.000300     NO 
 Maximum Displacement     0.025760     0.001800     NO 
 RMS     Displacement     0.007414     0.001200     NO 
 Predicted change in Energy=-3.560739D-05
 GradGradGradGradGradGradGradGradGradGradGradGradGradGradGradGradGradGrad

                          Input orientation:                          
 ---------------------------------------------------------------------
 Center     Atomic     Atomic              Coordinates (Angstroms)
 Number     Number      Type              X           Y           Z
 ---------------------------------------------------------------------
    1          6             0        0.979384    2.763998    0.002104
    2          1             0        1.266850    3.808607    0.003309
    3          7             0        1.871879    1.786529    0.000423
    4          7             0        1.272812    0.558250   -0.000964
    5          6             0       -0.042952    0.659694   -0.000379
    6         16             0       -0.664535    2.262380    0.000191
    7         16             0       -1.038384   -0.820162   -0.002054
    8          8             0       -0.841134   -1.483880   -1.284834
    9          8             0       -0.846554   -1.484810    1.281046
   10          7             0       -2.565418   -0.119416   -0.002726
   11          1             0       -3.069873   -0.381079   -0.849616
   12          1             0       -3.076181   -0.396668    0.835368
 ---------------------------------------------------------------------
                    Distance matrix (angstroms):
                    1          2          3          4          5
     1  C    0.000000
     2  H    1.083442   0.000000
     3  N    1.323629   2.110656   0.000000
     4  N    2.225182   3.250366   1.366585   0.000000
     5  C    2.339503   3.410462   2.221787   1.319669   0.000000
     6  S    1.718748   2.474080   2.580664   2.580188   1.719002
     7  S    4.113102   5.171038   3.906977   2.691030   1.783496
     8  O    4.797392   5.840662   4.439358   3.207395   2.623324
     9  O    4.798136   5.841177   4.442019   3.210818   2.624256
    10  N    4.569434   5.487775   4.829310   3.897594   2.640047
    11  H    5.197444   6.090001   5.462783   4.523435   3.311595
    12  H    5.208814   6.102342   5.472365   4.530459   3.318862
                    6          7          8          9         10
     6  S    0.000000
     7  S    3.105130   0.000000
     8  O    3.964460   1.457722   0.000000
     9  O    3.964234   1.457704   2.565886   0.000000
    10  N    3.047346   1.680142   2.545332   2.543003   0.000000
    11  H    3.673649   2.244572   2.524453   3.271252   1.019885
    12  H    3.685661   2.243489   3.266913   2.520698   1.019877
                   11         12
    11  H    0.000000
    12  H    1.685068   0.000000
 Symmetry turned off by external request.
 Stoichiometry    C2H3N3O2S2
 Framework group  C1[X(C2H3N3O2S2)]
 Deg. of freedom    30
 Full point group                 C1
 Rotational constants (GHZ):      2.5270146      0.9499423      0.8101194
 Standard basis: 6-31G(d) (6D, 7F)
 Integral buffers will be    262144 words long.
 Raffenetti 1 integral format.
 Two-electron integral symmetry is turned off.
   149 basis functions,   312 primitive gaussians,   149 cartesian basis functions
    42 alpha electrons       42 beta electrons
       nuclear repulsion energy       658.7518121253 Hartrees.
 NAtoms=   12 NActive=   12 NUniq=   12 SFac= 7.50D-01 NAtFMM=   80 NAOKFM=F Big=F
 One-electron integrals computed using PRISM.
 NBasis=   149 RedAO= T  NBF=   149
 NBsUse=   149 1.00D-06 NBFU=   149
 Initial guess read from the read-write file:
 Harris functional with IExCor=  205 diagonalized for initial guess.
 ExpMin= 1.17D-01 ExpMax= 2.19D+04 ExpMxC= 3.30D+03 IAcc=1 IRadAn=         1 AccDes= 1.00D-06
 HarFok:  IExCor= 205 AccDes= 1.00D-06 IRadAn=         1 IDoV=1
 ScaDFX=  1.000000  1.000000  1.000000  1.000000
 Requested convergence on RMS density matrix=1.00D-08 within 128 cycles.
 Requested convergence on MAX density matrix=1.00D-06.
 Requested convergence on             energy=1.00D-06.
 No special actions if energy rises.
 Keep R1 integrals in memory in canonical form, NReq=    65032955.
 SCF Done:  E(RHF) =  -1185.42091601     A.U. after   11 cycles
             Convg  =    0.6583D-08             -V/T =  2.0018
             S**2   =   0.0000
 ExpMin= 1.17D-01 ExpMax= 2.19D+04 ExpMxC= 3.30D+03 IAcc=1 IRadAn=         1 AccDes= 1.00D-06
 HarFok:  IExCor= 205 AccDes= 1.00D-06 IRadAn=         1 IDoV=1
 ScaDFX=  1.000000  1.000000  1.000000  1.000000
 Range of M.O.s used for correlation:    18   149
 NBasis=   149 NAE=    42 NBE=    42 NFC=    17 NFV=     0
 NROrb=    132 NOA=    25 NOB=    25 NVA=   107 NVB=   107
 Fully direct method using O(ONN) memory.
 JobTyp=1 Pass  1:  I=  18 to  42 NPSUse=  2 ParTrn=T ParDer=T DoDerP=T.
 Spin components of T(2) and E(2):
     alpha-alpha T2 =       0.6923990931D-01 E2=     -0.1943946647D+00
     alpha-beta  T2 =       0.3441543090D+00 E2=     -0.9981805252D+00
     beta-beta   T2 =       0.6923990931D-01 E2=     -0.1943946647D+00
 ANorm=    0.1217634645D+01
 E2 =    -0.1386969855D+01 EUMP2 =    -0.11868078858649D+04
 DoAtom=TTTTTTTTTTTT
          Differentiating once with respect to electric field.
                with respect to dipole field.
          Differentiating once with respect to nuclear coordinates.
          Store integrals in memory, NReq=    63266803.
          There are   1 degrees of freedom in the 1st order CPHF.
     1 vectors were produced by pass  0.
 AX will form   1 AO Fock derivatives at one time.
     1 vectors were produced by pass  1.
     1 vectors were produced by pass  2.
     1 vectors were produced by pass  3.
     1 vectors were produced by pass  4.
     1 vectors were produced by pass  5.
     1 vectors were produced by pass  6.
     1 vectors were produced by pass  7.
     1 vectors were produced by pass  8.
     1 vectors were produced by pass  9.
     1 vectors were produced by pass 10.
     1 vectors were produced by pass 11.
     1 vectors were produced by pass 12.
     1 vectors were produced by pass 13.
     1 vectors were produced by pass 14.
     1 vectors were produced by pass 15.
     1 vectors were produced by pass 16.
     1 vectors were produced by pass 17.
 Inv2:  IOpt= 1 Iter= 1 AM= 6.35D-16 Conv= 1.00D-12.
 Inverted reduced A of dimension   18 with in-core refinement.
 End of Minotr Frequency-dependent properties file   721 does not exist.
 -------------------------------------------------------------------
 Center     Atomic                   Forces (Hartrees/Bohr)
 Number     Number              X              Y              Z
 -------------------------------------------------------------------
    1          6           0.000632146   -0.000473666   -0.000174554
    2          1          -0.000009796    0.000146849   -0.000005573
    3          7          -0.000527568    0.000937259    0.000107905
    4          7          -0.000683162   -0.000015915    0.000043961
    5          6           0.000376033   -0.000037215   -0.000123799
    6         16           0.000467652   -0.000508992    0.000186639
    7         16          -0.000033873   -0.000033310    0.000004652
    8          8          -0.000223945    0.000173888    0.000367696
    9          8          -0.000183733    0.000164090   -0.000364977
   10          7           0.000170185   -0.000653205   -0.000069906
   11          1           0.000010455    0.000115887    0.000002319
   12          1           0.000005606    0.000184332    0.000025635
 -------------------------------------------------------------------
 Cartesian Forces:  Max     0.000937259 RMS     0.000329337

 GradGradGradGradGradGradGradGradGradGradGradGradGradGradGradGradGradGrad
 Berny optimization.
 Internal  Forces:  Max     0.000889809 RMS     0.000236913
 Search for a local minimum.
 Step number   5 out of a maximum of  61 on scan point     1 out of    13
 All quantities printed in internal units (Hartrees-Bohrs-Radians)
 Update second derivatives using D2CorX and points  1  2  3  4  5

 Trust test= 9.32D-01 RLast= 2.04D-02 DXMaxT set to 4.25D-01
     Eigenvalues ---    0.00968   0.01152   0.01651   0.02027   0.02077
     Eigenvalues ---    0.03745   0.08219   0.11608   0.12551   0.14848
     Eigenvalues ---    0.16002   0.16235   0.16636   0.23678   0.24512
     Eigenvalues ---    0.26620   0.28093   0.31610   0.34483   0.35525
     Eigenvalues ---    0.37347   0.39103   0.41547   0.47438   0.47688
     Eigenvalues ---    0.49378   0.55161   0.98600   1.247701000.00000
     Eigenvalues --- 1000.000001000.000001000.000001000.000001000.00000
     Eigenvalues --- 1000.000001000.000001000.000001000.000001000.00000
     Eigenvalues --- 1000.000001000.000001000.000001000.000001000.00000
     Eigenvalues --- 1000.000001000.000001000.000001000.000001000.00000
     Eigenvalues --- 1000.00000
 RFO step:  Lambda=-8.88001061D-06.
 Quartic linear search produced a step of -0.06382.
 Iteration  1 RMS(Cart)=  0.00198402 RMS(Int)=  0.00000352
 Iteration  2 RMS(Cart)=  0.00000367 RMS(Int)=  0.00000171
 Iteration  3 RMS(Cart)=  0.00000000 RMS(Int)=  0.00000171
 Iteration  1 RMS(Cart)=  0.00000010 RMS(Int)=  0.00000008
 Variable       Old X    -DE/DX   Delta X   Delta X   Delta X     New X
                                 (Linear)    (Quad)   (Total)
    R1        2.04741   0.00014   0.00004   0.00022   0.00026   2.04767
    R2        2.50130  -0.00089  -0.00013  -0.00122  -0.00135   2.49994
    R3        3.24796  -0.00007  -0.00010   0.00018   0.00008   3.24804
    R4        2.58247   0.00048  -0.00022   0.00171   0.00149   2.58396
    R5        2.49381  -0.00048  -0.00010  -0.00049  -0.00059   2.49322
    R6        3.24844  -0.00042  -0.00012  -0.00061  -0.00072   3.24772
    R7        3.37032   0.00018   0.00015   0.00022   0.00037   3.37068
    R8        2.75470  -0.00043  -0.00007  -0.00008  -0.00015   2.75455
    R9        2.75466  -0.00042  -0.00007  -0.00006  -0.00013   2.75453
   R10        3.17501  -0.00032   0.00031  -0.00178  -0.00148   3.17353
   R11        1.92730  -0.00004   0.00011  -0.00038  -0.00027   1.92703
   R12        1.92729  -0.00003   0.00011  -0.00037  -0.00026   1.92703
[...]
           A7         119.63788 119.72909 119.99538 120.50946 121.37809
           A8         124.78470 124.60278 124.13774 123.61751 123.06578
           A9          85.81495  85.82397  85.85858  85.90232  85.90120
           A10        107.66580 107.40273 107.27600 107.22618 107.27238
           A11        107.67941 107.91261 107.90986 107.57602 106.81414
           A12         99.35872  99.31163  99.29440  99.51428 100.08674
           A13        123.34234 123.29780 123.21627 123.25458 123.50162
           A14        108.10786 109.42954 110.33322 110.74385 110.81807
           A15        108.07073 106.86828 106.20051 105.94595 105.82767
           A16        110.21972 110.78029 111.08697 111.18592 111.24274
           A17        110.19879 109.67047 109.42069 109.37100 109.41841
           A18        111.60453 111.57391 111.50603 111.47050 111.63498
           D1        -179.99244-179.41932-179.19872-179.36724-179.91888
           D2           0.01927  -0.24966  -0.51562  -0.55623  -0.03272
           D3        -179.99669 179.32471 178.91796 178.99065 179.94752
           D4          -0.00841   0.15540   0.23352   0.17665   0.06100
           D5          -0.02241   0.22537   0.58716   0.73824  -0.02720
           D6           0.01665  -0.11145  -0.42514  -0.62607   0.07637
           D7         180.00323-176.88405-174.44941-174.13003-178.08139
           D8          -0.00507  -0.02007   0.11935   0.26699  -0.07760
           D9        -179.99087 176.57482 173.86547 173.54532 178.04562
           D10        -67.46077 -54.66764 -41.70316 -26.70362  -6.30407
           D11         67.52668  80.23843  92.99800 107.75856 127.94698
           D12       -179.98525-168.53692-156.51474-142.04186-121.98383
           D13        112.52448 128.86936 144.81159 160.33812 175.67963
           D14       -112.48807 -96.22457 -80.48725 -65.19970 -50.06932
           D15          0.00000  15.00008  30.00001  44.99988  59.99987
           D16        118.06658 110.02254 103.92277 100.69059 100.85117
           D17       -118.31926-126.38324-132.53409-135.77885-135.33727
           D18          5.88908  -2.26274  -8.50815 -11.92628 -12.12059
           D19        129.50325 121.33148 115.03499 111.60428 111.69097
           D20       -129.75255-137.92824-144.23545-147.82040-148.30526
           D21         -6.13838 -14.33402 -20.69232 -24.28984 -24.49370
                           6         7         8         9        10
     EIGENVALUES --  **************************************************
           R1           1.08365   1.08362   1.08357   1.08352   1.08348
           R2           1.32210   1.32282   1.32321   1.32312   1.32263
           R3           1.71830   1.71788   1.71802   1.71842   1.71895
           R4           1.36744   1.36720   1.36688   1.36677   1.36694
           R5           1.31992   1.31949   1.31908   1.31891   1.31920
           R6           1.71768   1.71679   1.71604   1.71583   1.71631
           R7           1.78214   1.78028   1.77972   1.77975   1.78001
           R8           1.45444   1.45525   1.45634   1.45755   1.45873
           R9           1.46163   1.46222   1.46237   1.46221   1.46176
           R10          1.67229   1.67008   1.66752   1.66426   1.66001
           R11          1.01985   1.01973   1.01954   1.01912   1.01845
           R12          1.01962   1.01945   1.01928   1.01896   1.01848
           A1         122.44511 122.34831 122.31761 122.33987 122.39725
           A2         122.23550 122.27072 122.27380 122.24801 122.20961
           A3         115.31082 115.37080 115.40456 115.41200 115.39132
           A4         111.74794 111.66612 111.60785 111.58700 111.61925
           A5         111.46986 111.46146 111.47166 111.49154 111.50138
           A6         115.59247 115.67946 115.74386 115.75302 115.71028
           A7         121.86835 121.95074 121.88764 121.80302 121.84777
           A8         122.41393 122.21505 122.33936 122.42258 122.21163
           A9          85.87064  85.81605  85.77098  85.75536  85.77146
           A10        107.39548 107.41645 107.32801 107.13038 106.77282
           A11        106.12825 105.90621 105.88586 106.01041 106.25883
           A12        100.54824 100.72644 100.89739 101.04472 101.22552
           A13        123.66007 123.51120 123.21332 122.87108 122.58043
           A14        110.89399 110.93848 110.90022 110.84890 110.75203
           A15        105.74378 105.92482 106.28464 106.69416 107.09977
           A16        111.40731 111.53553 111.65979 111.89307 112.30013
           A17        109.57177 109.72230 109.86264 110.03814 110.32834
           A18        112.03489 112.32169 112.56743 112.89586 113.35336
           D1         179.42269 179.16466 179.23582 179.55412-180.00331
           D2           0.46607   0.30085  -0.04914  -0.32503  -0.48503
           D3        -178.89996-178.72247-179.08941-179.72063 179.54449
           D4           0.05909   0.14232   0.19590   0.15864   0.02522
           D5          -0.90731  -0.73074  -0.18617   0.35399   0.82337
           D6           0.98865   0.87255   0.34888  -0.24325  -0.83713
           D7         177.01177 176.44383 178.42820-178.59936-175.43698
           D8          -0.60628  -0.58425  -0.30937   0.05465   0.47200
           D9        -176.60550-176.14268-178.37916 178.39956 175.05029
           D10         15.25712  30.86166  43.19192  54.32540  65.16753
           D11        149.30197 164.57571 176.45714-172.88513-162.47607
           D12       -100.75083 -85.28180 -72.95228 -61.75402 -50.75175
           D13       -168.99201-153.85654-138.85576-123.92054-109.08068
           D14        -34.94716 -20.14248  -5.59055   8.86894  23.27571
           D15         75.00004  90.00000 105.00003 120.00004 135.00003
           D16        101.15527  99.54704  97.93086  96.91531  96.98438
           D17       -134.29889-135.33756-136.44160-136.72295-135.50960
           D18        -12.21014 -13.94732 -15.53432 -16.37992 -15.95885
           D19        112.33571 111.16808 110.09322 109.98181 111.54718
           D20       -148.59750-150.32495-151.78717-152.47984-151.93414
           D21        -24.05165 -25.20955 -26.15963 -26.11810 -24.42811
                          11        12        13
     EIGENVALUES --  ******************************
           R1           1.08348   1.08353   1.08358
           R2           1.32178   1.32082   1.32018
           R3           1.71936   1.71939   1.71945
           R4           1.36746   1.36840   1.36942
           R5           1.31994   1.32073   1.32076
           R6           1.71753   1.71929   1.72043
           R7           1.78075   1.78278   1.78494
           R8           1.45965   1.46015   1.46004
           R9           1.46116   1.46046   1.46004
           R10          1.65455   1.64749   1.64159
           R11          1.01747   1.01624   1.01533
           R12          1.01770   1.01652   1.01533
           A1         122.47242 122.55438 122.59670
           A2         122.18142 122.16307 122.16331
           A3         115.33908 115.27506 115.23998
           A4         111.71333 111.84499 111.94077
           A5         111.49034 111.45282 111.39105
           A6         115.61402 115.50590 115.49956
           A7         122.17733 123.05425 124.12045
           A8         121.64658 120.86535 120.37999
           A9          85.82769  85.90344  85.92864
           A10        106.25052 105.73720 106.02406
           A11        106.56231 106.68572 106.01320
           A12        101.52329 102.07319 102.64667
           A13        122.42170 122.49188 122.70231
           A14        110.52106 109.95192 108.78460
           A15        107.50216 107.94586 108.79977
           A16        112.89106 113.62289 113.74679
           A17        110.89150 112.00561 113.75711
           A18        114.00543 114.92682 115.79627
           D1        -179.59750-179.49486 180.00423
           D2          -0.54657  -0.47127  -0.00589
           D3         178.88730 178.74764 179.99240
           D4          -0.16668  -0.28016   0.00247
           D5           1.20007   1.22514   0.00698
           D6          -1.37842  -1.49063  -0.00527
           D7        -172.90768-172.85247 180.01503
           D8           0.89089   1.01858   0.00172
           D9         172.46923 172.58541-180.01776
           D10         76.62290  90.92586 114.04556
           D11       -151.36267-137.23080-114.10073
           D12        -38.97659 -24.08637  -0.02123
           D13        -94.40058 -79.98786 -65.93321
           D14         37.61385  51.85548  65.92051
           D15        149.99994 164.99992-180.00000
           D16         98.42652 102.13191 112.29355
           D17       -132.23955-125.57597-112.21984
           D18        -13.98501  -9.75142   0.26061
           D19        115.34892 122.54069 135.74722
           D20       -149.89894-145.66404-135.67994
           D21        -20.56501 -13.37193  -0.19334
                          Input orientation:                          
 ---------------------------------------------------------------------
 Center     Atomic     Atomic              Coordinates (Angstroms)
 Number     Number      Type              X           Y           Z
 ---------------------------------------------------------------------
    1          6             0        1.340858    2.579092    0.123247
    2          1             0        2.140189    3.295144    0.273181
    3          7             0        0.438455    2.710094   -0.831414
    4          7             0       -0.468365    1.683980   -0.822631
    5          6             0       -0.209236    0.820344    0.142459
    6         16             0        1.159859    1.187857    1.117344
    7         16             0       -1.177041   -0.645218    0.461050
    8          8             0       -0.301911   -1.777182    0.170322
    9          8             0       -1.796874   -0.442471    1.767354
   10          7             0       -2.340321   -0.565957   -0.694503
   11          1             0       -2.268153   -1.294534   -1.397971
   12          1             0       -3.271567   -0.397706   -0.326570
 ---------------------------------------------------------------------
                    Distance matrix (angstroms):
                    1          2          3          4          5
     1  C    0.000000
     2  H    1.083578   0.000000
     3  N    1.320177   2.111471   0.000000
     4  N    2.229170   3.255949   1.369420   0.000000
     5  C    2.344431   3.414897   2.222406   1.320762   0.000000
     6  S    1.719455   2.472715   2.575905   2.580844   1.720432
     7  S    4.104887   5.154198   3.941879   2.752312   1.784942
     8  O    4.655968   5.630535   4.656959   3.604623   2.599329
     9  O    4.655995   5.630522   4.657140   3.604823   2.599149
    10  N    4.910309   5.993287   4.298006   2.929651   2.676539
    11  H    5.508542   6.579617   4.866596   3.527293   3.329380
    12  H    5.508006   6.579054   4.865959   3.526675   3.328890
                    6          7          8          9         10
     6  S    0.000000
     7  S    3.041708   0.000000
     8  O    3.438762   1.460040   0.000000
     9  O    3.438422   1.460045   2.562592   0.000000
    10  N    4.313921   1.641586   2.523907   2.524148   0.000000
    11  H    4.923448   2.251243   2.560977   3.311706   1.015332
    12  H    4.923051   2.251366   3.311905   2.561493   1.015334
                   11         12
    11  H    0.000000
    12  H    1.720186   0.000000
 Symmetry turned off by external request.
 Stoichiometry    C2H3N3O2S2
 Framework group  C1[X(C2H3N3O2S2)]
 Deg. of freedom    30
 Full point group                 C1
 Rotational constants (GHZ):      2.5545850      0.9441502      0.8084936

 **********************************************************************

            Population analysis using the SCF density.

 **********************************************************************

 Alpha  occ. eigenvalues --  -92.24937 -92.03229 -20.58350 -20.58349 -15.65194
 Alpha  occ. eigenvalues --  -15.63974 -15.63035 -11.36132 -11.34818  -9.21869
 Alpha  occ. eigenvalues --   -9.04358  -6.90490  -6.90456  -6.90403  -6.72578
 Alpha  occ. eigenvalues --   -6.72486  -6.72312  -1.48671  -1.38735  -1.36514
 Alpha  occ. eigenvalues --   -1.24359  -1.13972  -1.11592  -0.94788  -0.85083
 Alpha  occ. eigenvalues --   -0.81473  -0.74974  -0.74863  -0.71199  -0.65317
 Alpha  occ. eigenvalues --   -0.64563  -0.61660  -0.61113  -0.54737  -0.52441
 Alpha  occ. eigenvalues --   -0.51730  -0.49438  -0.48407  -0.46986  -0.46115
 Alpha  occ. eigenvalues --   -0.43057  -0.40673
 Alpha virt. eigenvalues --    0.06638   0.13071   0.15765   0.17599   0.21297
 Alpha virt. eigenvalues --    0.24033   0.24726   0.25894   0.26622   0.29853
 Alpha virt. eigenvalues --    0.32281   0.35915   0.40115   0.45284   0.48079
 Alpha virt. eigenvalues --    0.49540   0.50569   0.54697   0.57229   0.62431
 Alpha virt. eigenvalues --    0.63910   0.64321   0.75736   0.75754   0.78503
 Alpha virt. eigenvalues --    0.82881   0.83371   0.85181   0.87882   0.88609
 Alpha virt. eigenvalues --    0.93842   0.95831   0.97403   1.00392   1.00896
 Alpha virt. eigenvalues --    1.01955   1.03468   1.07167   1.07832   1.09090
 Alpha virt. eigenvalues --    1.12122   1.13235   1.14205   1.14339   1.16897
 Alpha virt. eigenvalues --    1.17696   1.22089   1.24343   1.25441   1.27508
 Alpha virt. eigenvalues --    1.28326   1.30016   1.31317   1.36812   1.42871
 Alpha virt. eigenvalues --    1.44600   1.48043   1.50510   1.53482   1.61676
 Alpha virt. eigenvalues --    1.62153   1.63716   1.73294   1.75934   1.79110
 Alpha virt. eigenvalues --    1.82030   1.94616   1.96103   1.97904   2.03121
 Alpha virt. eigenvalues --    2.08006   2.08298   2.09697   2.11740   2.15476
 Alpha virt. eigenvalues --    2.19852   2.27517   2.29706   2.34503   2.37115
 Alpha virt. eigenvalues --    2.40376   2.45452   2.49644   2.53609   2.58474
 Alpha virt. eigenvalues --    2.62960   2.64173   2.64865   2.68595   2.72658
 Alpha virt. eigenvalues --    2.73746   2.83214   2.92650   2.96837   3.10703
 Alpha virt. eigenvalues --    3.15527   3.29653   3.32974   4.01567   4.16097
 Alpha virt. eigenvalues --    4.24469   4.26129   4.31869   4.37236   4.42680
 Alpha virt. eigenvalues --    4.57360   4.67699
          Condensed to atoms (all electrons):
              1          2          3          4          5          6
     1  C    5.158142   0.381814   0.466720  -0.091027  -0.078467   0.318959
     2  H    0.381814   0.398189  -0.025637   0.003025   0.002858  -0.031500
     3  N    0.466720  -0.025637   6.672255   0.294301  -0.094928  -0.074498
     4  N   -0.091027   0.003025   0.294301   6.706649   0.394073  -0.061909
     5  C   -0.078467   0.002858  -0.094928   0.394073   5.690240   0.281761
     6  S    0.318959  -0.031500  -0.074498  -0.061909   0.281761  15.182055
     7  S   -0.001390   0.000019   0.000450  -0.013619   0.232779  -0.016081
     8  O   -0.000037   0.000000  -0.000040   0.000018  -0.067673   0.003030
     9  O   -0.000037   0.000000  -0.000040   0.000019  -0.067686   0.003033
    10  N   -0.000086   0.000000   0.000012  -0.007334  -0.056773   0.001242
    11  H    0.000001   0.000000  -0.000001  -0.000064   0.001633  -0.000017
    12  H    0.000001   0.000000  -0.000001  -0.000063   0.001630  -0.000017
              7          8          9         10         11         12
     1  C   -0.001390  -0.000037  -0.000037  -0.000086   0.000001   0.000001
     2  H    0.000019   0.000000   0.000000   0.000000   0.000000   0.000000
     3  N    0.000450  -0.000040  -0.000040   0.000012  -0.000001  -0.000001
     4  N   -0.013619   0.000018   0.000019  -0.007334  -0.000064  -0.000063
     5  C    0.232779  -0.067673  -0.067686  -0.056773   0.001633   0.001630
     6  S   -0.016081   0.003030   0.003033   0.001242  -0.000017  -0.000017
     7  S   12.871366   0.512664   0.512642   0.261716  -0.006427  -0.006404
     8  O    0.512664   8.309093  -0.035039  -0.057612   0.001816   0.000866
     9  O    0.512642  -0.035039   8.309115  -0.057596   0.000864   0.001812
    10  N    0.261716  -0.057612  -0.057596   7.273137   0.310318   0.310297
    11  H   -0.006427   0.001816   0.000864   0.310318   0.278293  -0.011793
    12  H   -0.006404   0.000866   0.001812   0.310297  -0.011793   0.278311
 Mulliken atomic charges:
              1
     1  C   -0.154594
     2  H    0.271232
     3  N   -0.238592
     4  N   -0.224069
     5  C   -0.239447
     6  S    0.393940
     7  S    1.652286
     8  O   -0.667084
     9  O   -0.667088
    10  N   -0.977320
    11  H    0.425376
    12  H    0.425361
 Sum of Mulliken charges=   0.00000
 Atomic charges with hydrogens summed into heavy atoms:
              1
     1  C    0.116638
     2  H    0.000000
     3  N   -0.238592
     4  N   -0.224069
     5  C   -0.239447
     6  S    0.393940
     7  S    1.652286
     8  O   -0.667084
     9  O   -0.667088
    10  N   -0.126583
    11  H    0.000000
    12  H    0.000000
 Sum of Mulliken charges=   0.00000
 Electronic spatial extent (au):  <R**2>=  1546.6634
 Charge=     0.0000 electrons
 Dipole moment (field-independent basis, Debye):
    X=     0.4093    Y=     0.9061    Z=    -0.3719  Tot=     1.0616
 Quadrupole moment (field-independent basis, Debye-Ang):
   XX=   -51.8757   YY=   -68.9831   ZZ=   -71.4984
   XY=    11.1452   XZ=     8.2674   YZ=    10.3406
 Traceless Quadrupole moment (field-independent basis, Debye-Ang):
   XX=    12.2434   YY=    -4.8640   ZZ=    -7.3793
   XY=    11.1452   XZ=     8.2674   YZ=    10.3406
 Octapole moment (field-independent basis, Debye-Ang**2):
  XXX=    35.4618  YYY=   -99.7524  ZZZ=   -64.2000  XYY=    36.7932
  XXY=   -31.7985  XXZ=   -29.1714  XZZ=    30.3876  YZZ=   -44.3428
  YYZ=    -4.1872  XYZ=    -4.3383
 Hexadecapole moment (field-independent basis, Debye-Ang**3):
 XXXX=  -537.5083 YYYY=  -967.8117 ZZZZ=  -372.5604 XXXY=  -137.4816
 XXXZ=    30.3902 YYYX=  -133.5542 YYYZ=    83.3013 ZZZX=    16.9639
 ZZZY=    42.0091 XXYY=  -214.7383 XXZZ=  -187.1884 YYZZ=  -230.7568
 XXYZ=    36.4281 YYXZ=    16.5381 ZZXY=   -60.9475
 N-N= 6.589550293032D+02 E-N=-4.124801983016D+03  KE= 1.183354501918D+03
 1\1\GINC-MERKURY\Scan\RMP2-FC\6-31G(d)\C2H3N3O2S2\KENNO\05-May-2012\0\
 \#MP2/6-31G(d) NoSymm Opt=ModRedundant\\SULFAZ, "sulfonamidazole" exoc
 yclic scan (model compound for ACAZAM, acetazolami\\0,1\C,1.3408578268
 ,2.5790923043,0.1232466758\H,2.140188634,3.2951442634,0.2731809068\N,0
 .4384553902,2.7100942166,-0.8314138489\N,-0.4683646772,1.6839796789,-0
 .82263138\C,-0.2092361864,0.8203444986,0.1424591011\S,1.1598585057,1.1
 878573321,1.1173442373\S,-1.1770406668,-0.6452180569,0.4610496516\O,-0
 .3019108605,-1.777182353,0.1703222391\O,-1.7968735932,-0.4424705797,1.
 7673540146\N,-2.3403213389,-0.5659573633,-0.6945030007\H,-2.2681527262
 ,-1.2945335181,-1.3979713015\H,-3.2715673774,-0.397706163,-0.326570225
 2\\Version=IA32L-G03RevD.01\HF=-1185.4212165,-1185.4212509,-1185.42128
 83,-1185.4214176,-1185.4221721,-1185.4234137,-1185.4245023,-1185.42501
 55,-1185.4249779,-1185.4245488,-1185.4238637,-1185.4231579,-1185.42300
 65\MP2=-1186.807892,-1186.8079404,-1186.807919,-1186.807688,-1186.8077
 504,-1186.8087935,-1186.8099624,-1186.8105518,-1186.8105592,-1186.8100
 995,-1186.809211,-1186.8079835,-1186.8071883\RMSD=6.603e-09,7.525e-09,
 3.524e-09,9.552e-09,5.018e-09,8.780e-09,7.514e-09,9.605e-09,6.652e-09,
 6.515e-09,6.708e-09,6.354e-09,6.958e-09\Thermal=0.,0.,0.,0.,0.,0.,0.,0
 .,0.,0.,0.,0.,0.\PG=C01 [X(C2H3N3O2S2)]\\@


 THE GREAT THING ABOUT BEING IMPERFECT IS THE JOY IT BRINGS OTHERS.
   -- SIGN OUTSIDE LAKE AGASSIZ JR. HIGH SCHOOL, FARGO, N.D.
 Job cpu time:  0 days  6 hours 18 minutes 56.9 seconds.
 File lengths (MBytes):  RWF=     22 Int=      0 D2E=      0 Chk=      7 Scr=      1
 Normal termination of Gaussian 03 at Sat May  5 13:44:31 2012.
